 Entering Gaussian System, Link 0=g16
 Input=/gpfs/home/phys/huxy0214/C60+-f-1.gjf
 Output=/gpfs/home/phys/huxy0214/C60+-f-1.log
 Initial command:
 /opt/gaussian/16/C01/g16/l1.exe "/tmp/Gau-14834.inp" -scrdir="/tmp/"
 Entering Link 1 = /opt/gaussian/16/C01/g16/l1.exe PID=     14835.
  
 Copyright (c) 1988-2019, Gaussian, Inc.  All Rights Reserved.
  
 This is part of the Gaussian(R) 16 program.  It is based on
 the Gaussian(R) 09 system (copyright 2009, Gaussian, Inc.),
 the Gaussian(R) 03 system (copyright 2003, Gaussian, Inc.),
 the Gaussian(R) 98 system (copyright 1998, Gaussian, Inc.),
 the Gaussian(R) 94 system (copyright 1995, Gaussian, Inc.),
 the Gaussian 92(TM) system (copyright 1992, Gaussian, Inc.),
 the Gaussian 90(TM) system (copyright 1990, Gaussian, Inc.),
 the Gaussian 88(TM) system (copyright 1988, Gaussian, Inc.),
 the Gaussian 86(TM) system (copyright 1986, Carnegie Mellon
 University), and the Gaussian 82(TM) system (copyright 1983,
 Carnegie Mellon University). Gaussian is a federally registered
 trademark of Gaussian, Inc.
  
 This software contains proprietary and confidential information,
 including trade secrets, belonging to Gaussian, Inc.
  
 This software is provided under written license and may be
 used, copied, transmitted, or stored only in accord with that
 written license.
  
 The following legend is applicable only to US Government
 contracts under FAR:
  
                    RESTRICTED RIGHTS LEGEND
  
 Use, reproduction and disclosure by the US Government is
 subject to restrictions as set forth in subparagraphs (a)
 and (c) of the Commercial Computer Software - Restricted
 Rights clause in FAR 52.227-19.
  
 Gaussian, Inc.
 340 Quinnipiac St., Bldg. 40, Wallingford CT 06492
  
  
 ---------------------------------------------------------------
 Warning -- This program may not be used in any manner that
 competes with the business of Gaussian, Inc. or will provide
 assistance to any competitor of Gaussian, Inc.  The licensee
 of this program is prohibited from giving any competitor of
 Gaussian, Inc. access to this program.  By using this program,
 the user acknowledges that Gaussian, Inc. is engaged in the
 business of creating and licensing software in the field of
 computational chemistry and represents and warrants to the
 licensee that it is not a competitor of Gaussian, Inc. and that
 it will not use this program in any manner prohibited above.
 ---------------------------------------------------------------
  

 Cite this work as:
 Gaussian 16, Revision C.01,
 M. J. Frisch, G. W. Trucks, H. B. Schlegel, G. E. Scuseria, 
 M. A. Robb, J. R. Cheeseman, G. Scalmani, V. Barone, 
 G. A. Petersson, H. Nakatsuji, X. Li, M. Caricato, A. V. Marenich, 
 J. Bloino, B. G. Janesko, R. Gomperts, B. Mennucci, H. P. Hratchian, 
 J. V. Ortiz, A. F. Izmaylov, J. L. Sonnenberg, D. Williams-Young, 
 F. Ding, F. Lipparini, F. Egidi, J. Goings, B. Peng, A. Petrone, 
 T. Henderson, D. Ranasinghe, V. G. Zakrzewski, J. Gao, N. Rega, 
 G. Zheng, W. Liang, M. Hada, M. Ehara, K. Toyota, R. Fukuda, 
 J. Hasegawa, M. Ishida, T. Nakajima, Y. Honda, O. Kitao, H. Nakai, 
 T. Vreven, K. Throssell, J. A. Montgomery, Jr., J. E. Peralta, 
 F. Ogliaro, M. J. Bearpark, J. J. Heyd, E. N. Brothers, K. N. Kudin, 
 V. N. Staroverov, T. A. Keith, R. Kobayashi, J. Normand, 
 K. Raghavachari, A. P. Rendell, J. C. Burant, S. S. Iyengar, 
 J. Tomasi, M. Cossi, J. M. Millam, M. Klene, C. Adamo, R. Cammi, 
 J. W. Ochterski, R. L. Martin, K. Morokuma, O. Farkas, 
 J. B. Foresman, and D. J. Fox, Gaussian, Inc., Wallingford CT, 2019.
 
 ******************************************
 Gaussian 16:  ES64L-G16RevC.01  3-Jul-2019
                27-Oct-2021 
 ******************************************
 %nprocshared=40
 Will use up to   40 processors via shared memory.
 %chk=C60+-f-1.chk
 %mem=120GB
 ----------------------------------------------------------------------
 #p opt freq b3lyp/6-311++g(d,p) empiricaldispersion=gd3bj int=ultrafin
 e guess=read geom=allchk
 ----------------------------------------------------------------------
 1/18=20,19=15,26=4,29=7,38=1/1,3;
 2/9=110,12=2,40=1/2;
 3/5=4,6=6,7=1111,11=2,14=-4,25=1,30=1,71=1,74=-5,75=-5,116=-2,124=41/1,2,3;
 4/5=1/1;
 5/5=2,38=6/2;
 6/7=2,8=2,9=2,10=2,28=1/1;
 7//1,2,3,16;
 1/18=20,19=15,26=4/3(2);
 2/9=110/2;
 99//99;
 2/9=110/2;
 3/5=4,6=6,7=1111,11=2,14=-2,25=1,30=1,71=1,74=-5,75=-5,124=41/1,2,3;
 4/5=5,16=3,69=1/1;
 5/5=2,38=5/2;
 7//1,2,3,16;
 1/18=20,19=15,26=4/3(-5);
 2/9=110/2;
 6/7=2,8=2,9=2,10=2,19=2,28=1/1;
 99/9=1/99;
 Leave Link    1 at Wed Oct 27 12:43:42 2021, MaxMem= 16106127360 cpu:               6.0 elap:               0.2
 (Enter /opt/gaussian/16/C01/g16/l101.exe)
 Structure from the checkpoint file:  "C60+-f-1.chk"
 -------------------
 Title Card Required
 -------------------
 Charge =  1 Multiplicity = 2
 Redundant internal coordinates found in file.  (old form).
 C,0,1.838274,-3.042163,-0.012885
 C,0,2.612876,-2.245131,0.924138
 C,0,3.35074,-1.152995,0.466079
 C,0,3.34712,-0.816242,-0.950004
 C,0,2.605939,-1.586154,-1.84724
 C,0,1.835029,-2.72061,-1.365682
 C,0,0.590884,-3.42351,0.644844
 C,0,0.596342,-2.869346,1.973238
 C,0,1.847242,-2.137693,2.15631
 C,0,1.852947,-0.950612,2.879781
 C,0,3.35632,0.090235,1.224121
 C,0,3.350587,0.634952,-1.067649
 C,0,2.614407,1.254346,-2.077632
 C,0,1.838782,0.448966,-3.007964
 C,0,1.834913,-0.936683,-2.89574
 C,0,0.584075,-1.673712,-3.055662
 C,0,0.584236,-2.766798,-2.11913
 C,0,-0.612886,-3.146083,-1.486488
 C,0,-0.609564,-3.479203,-0.085488
 C,0,-0.598276,-2.386671,2.536252
 C,0,-1.848916,-2.456065,1.785076
 C,0,-1.854234,-2.990576,0.501505
 C,0,-2.625838,-2.350803,-0.55255
 C,0,-1.859568,-2.446827,-1.785066
 C,0,-1.859768,-1.392,-2.691009
 C,0,-0.612513,-0.990745,-3.336281
 C,0,-0.608446,0.443962,-3.451581
 C,0,0.592216,1.157462,-3.285074
 C,0,3.356366,1.194962,0.276082
 C,0,-0.590875,3.423506,-0.644851
 C,0,0.609582,3.479214,0.085477
 C,0,0.61291,3.146098,1.486481
 C,0,-0.584252,2.766797,2.119152
 C,0,-1.835046,2.720606,1.365702
 C,0,-2.612888,2.245134,-0.924122
 C,0,-1.847276,2.137758,-2.156335
 C,0,-0.596341,2.869353,-1.973245
 C,0,0.598276,2.386669,-2.53626
 C,0,1.848916,2.456055,-1.785081
 C,0,1.854248,2.990578,-0.501516
 C,0,1.859594,2.446842,1.785056
 C,0,1.859767,1.391997,2.690991
 C,0,0.61251,0.990739,3.336273
 C,0,-0.584087,1.6737,3.055677
 C,0,-1.834922,0.936668,2.895755
 C,0,-2.605954,1.586146,1.847255
 C,0,-3.347129,0.816235,0.950011
 C,0,-3.350752,1.152996,-0.466074
 C,0,-1.852938,0.950602,-2.879786
 C,0,-2.625462,-0.188104,-2.4082
 C,0,-3.356302,-0.09023,-1.22411
 C,0,-3.356356,-1.194964,-0.276079
 C,0,-3.350587,-0.634959,1.067653
 C,0,-2.614405,-1.254357,2.077635
 C,0,-1.83878,-0.448979,3.007968
 C,0,-0.592211,-1.157466,3.285066
 C,0,0.608449,-0.443978,3.451573
 C,0,2.625855,2.350807,0.552543
 C,0,2.625449,0.188113,2.408185
 C,0,-1.83828,3.042164,0.012906
 Recover connectivity data from disk.
 ITRead=  0  0  0  0  0  0  0  0  0  0  0  0  0  0  0  0  0  0  0  0
 ITRead=  0  0  0  0  0  0  0  0  0  0  0  0  0  0  0  0  0  0  0  0
 ITRead=  0  0  0  0  0  0  0  0  0  0  0  0  0  0  0  0  0  0  0  0
 MicOpt= -1 -1 -1 -1 -1 -1 -1 -1 -1 -1 -1 -1 -1 -1 -1 -1 -1 -1 -1 -1
 MicOpt= -1 -1 -1 -1 -1 -1 -1 -1 -1 -1 -1 -1 -1 -1 -1 -1 -1 -1 -1 -1
 MicOpt= -1 -1 -1 -1 -1 -1 -1 -1 -1 -1 -1 -1 -1 -1 -1 -1 -1 -1 -1 -1
 NAtoms=     60 NQM=       60 NQMF=       0 NMMI=      0 NMMIF=      0
                NMic=       0 NMicF=      0.
                    Isotopes and Nuclear Properties:
 (Nuclear quadrupole moments (NQMom) in fm**2, nuclear magnetic moments (NMagM)
  in nuclear magnetons)

  Atom         1           2           3           4           5           6           7           8           9          10
 IAtWgt=          12          12          12          12          12          12          12          12          12          12
 AtmWgt=  12.0000000  12.0000000  12.0000000  12.0000000  12.0000000  12.0000000  12.0000000  12.0000000  12.0000000  12.0000000
 NucSpn=           0           0           0           0           0           0           0           0           0           0
 AtZEff=   3.6000000   3.6000000   3.6000000   3.6000000   3.6000000   3.6000000   3.6000000   3.6000000   3.6000000   3.6000000
 NQMom=    0.0000000   0.0000000   0.0000000   0.0000000   0.0000000   0.0000000   0.0000000   0.0000000   0.0000000   0.0000000
 NMagM=    0.0000000   0.0000000   0.0000000   0.0000000   0.0000000   0.0000000   0.0000000   0.0000000   0.0000000   0.0000000
 AtZNuc=   6.0000000   6.0000000   6.0000000   6.0000000   6.0000000   6.0000000   6.0000000   6.0000000   6.0000000   6.0000000

  Atom        11          12          13          14          15          16          17          18          19          20
 IAtWgt=          12          12          12          12          12          12          12          12          12          12
 AtmWgt=  12.0000000  12.0000000  12.0000000  12.0000000  12.0000000  12.0000000  12.0000000  12.0000000  12.0000000  12.0000000
 NucSpn=           0           0           0           0           0           0           0           0           0           0
 AtZEff=   3.6000000   3.6000000   3.6000000   3.6000000   3.6000000   3.6000000   3.6000000   3.6000000   3.6000000   3.6000000
 NQMom=    0.0000000   0.0000000   0.0000000   0.0000000   0.0000000   0.0000000   0.0000000   0.0000000   0.0000000   0.0000000
 NMagM=    0.0000000   0.0000000   0.0000000   0.0000000   0.0000000   0.0000000   0.0000000   0.0000000   0.0000000   0.0000000
 AtZNuc=   6.0000000   6.0000000   6.0000000   6.0000000   6.0000000   6.0000000   6.0000000   6.0000000   6.0000000   6.0000000

  Atom        21          22          23          24          25          26          27          28          29          30
 IAtWgt=          12          12          12          12          12          12          12          12          12          12
 AtmWgt=  12.0000000  12.0000000  12.0000000  12.0000000  12.0000000  12.0000000  12.0000000  12.0000000  12.0000000  12.0000000
 NucSpn=           0           0           0           0           0           0           0           0           0           0
 AtZEff=   3.6000000   3.6000000   3.6000000   3.6000000   3.6000000   3.6000000   3.6000000   3.6000000   3.6000000   3.6000000
 NQMom=    0.0000000   0.0000000   0.0000000   0.0000000   0.0000000   0.0000000   0.0000000   0.0000000   0.0000000   0.0000000
 NMagM=    0.0000000   0.0000000   0.0000000   0.0000000   0.0000000   0.0000000   0.0000000   0.0000000   0.0000000   0.0000000
 AtZNuc=   6.0000000   6.0000000   6.0000000   6.0000000   6.0000000   6.0000000   6.0000000   6.0000000   6.0000000   6.0000000

  Atom        31          32          33          34          35          36          37          38          39          40
 IAtWgt=          12          12          12          12          12          12          12          12          12          12
 AtmWgt=  12.0000000  12.0000000  12.0000000  12.0000000  12.0000000  12.0000000  12.0000000  12.0000000  12.0000000  12.0000000
 NucSpn=           0           0           0           0           0           0           0           0           0           0
 AtZEff=   3.6000000   3.6000000   3.6000000   3.6000000   3.6000000   3.6000000   3.6000000   3.6000000   3.6000000   3.6000000
 NQMom=    0.0000000   0.0000000   0.0000000   0.0000000   0.0000000   0.0000000   0.0000000   0.0000000   0.0000000   0.0000000
 NMagM=    0.0000000   0.0000000   0.0000000   0.0000000   0.0000000   0.0000000   0.0000000   0.0000000   0.0000000   0.0000000
 AtZNuc=   6.0000000   6.0000000   6.0000000   6.0000000   6.0000000   6.0000000   6.0000000   6.0000000   6.0000000   6.0000000

  Atom        41          42          43          44          45          46          47          48          49          50
 IAtWgt=          12          12          12          12          12          12          12          12          12          12
 AtmWgt=  12.0000000  12.0000000  12.0000000  12.0000000  12.0000000  12.0000000  12.0000000  12.0000000  12.0000000  12.0000000
 NucSpn=           0           0           0           0           0           0           0           0           0           0
 AtZEff=   3.6000000   3.6000000   3.6000000   3.6000000   3.6000000   3.6000000   3.6000000   3.6000000   3.6000000   3.6000000
 NQMom=    0.0000000   0.0000000   0.0000000   0.0000000   0.0000000   0.0000000   0.0000000   0.0000000   0.0000000   0.0000000
 NMagM=    0.0000000   0.0000000   0.0000000   0.0000000   0.0000000   0.0000000   0.0000000   0.0000000   0.0000000   0.0000000
 AtZNuc=   6.0000000   6.0000000   6.0000000   6.0000000   6.0000000   6.0000000   6.0000000   6.0000000   6.0000000   6.0000000

  Atom        51          52          53          54          55          56          57          58          59          60
 IAtWgt=          12          12          12          12          12          12          12          12          12          12
 AtmWgt=  12.0000000  12.0000000  12.0000000  12.0000000  12.0000000  12.0000000  12.0000000  12.0000000  12.0000000  12.0000000
 NucSpn=           0           0           0           0           0           0           0           0           0           0
 AtZEff=   3.6000000   3.6000000   3.6000000   3.6000000   3.6000000   3.6000000   3.6000000   3.6000000   3.6000000   3.6000000
 NQMom=    0.0000000   0.0000000   0.0000000   0.0000000   0.0000000   0.0000000   0.0000000   0.0000000   0.0000000   0.0000000
 NMagM=    0.0000000   0.0000000   0.0000000   0.0000000   0.0000000   0.0000000   0.0000000   0.0000000   0.0000000   0.0000000
 AtZNuc=   6.0000000   6.0000000   6.0000000   6.0000000   6.0000000   6.0000000   6.0000000   6.0000000   6.0000000   6.0000000
 Leave Link  101 at Wed Oct 27 12:43:43 2021, MaxMem= 16106127360 cpu:              26.3 elap:               0.7
 (Enter /opt/gaussian/16/C01/g16/l103.exe)

 GradGradGradGradGradGradGradGradGradGradGradGradGradGradGradGradGradGrad
 Berny optimization.
 Initialization pass.
                           ----------------------------
                           !    Initial Parameters    !
                           ! (Angstroms and Degrees)  !
 --------------------------                            --------------------------
 ! Name  Definition              Value          Derivative Info.                !
 --------------------------------------------------------------------------------
 ! R1    R(1,2)                  1.4537         estimate D2E/DX2                !
 ! R2    R(1,6)                  1.3905         estimate D2E/DX2                !
 ! R3    R(1,7)                  1.4608         estimate D2E/DX2                !
 ! R4    R(2,3)                  1.3954         estimate D2E/DX2                !
 ! R5    R(2,9)                  1.4546         estimate D2E/DX2                !
 ! R6    R(3,4)                  1.4556         estimate D2E/DX2                !
 ! R7    R(3,11)                 1.4561         estimate D2E/DX2                !
 ! R8    R(4,5)                  1.3954         estimate D2E/DX2                !
 ! R9    R(4,12)                 1.456          estimate D2E/DX2                !
 ! R10   R(5,6)                  1.4537         estimate D2E/DX2                !
 ! R11   R(5,15)                 1.4545         estimate D2E/DX2                !
 ! R12   R(6,17)                 1.4609         estimate D2E/DX2                !
 ! R13   R(7,8)                  1.4394         estimate D2E/DX2                !
 ! R14   R(7,19)                 1.4063         estimate D2E/DX2                !
 ! R15   R(8,9)                  1.4607         estimate D2E/DX2                !
 ! R16   R(8,20)                 1.4061         estimate D2E/DX2                !
 ! R17   R(9,10)                 1.3902         estimate D2E/DX2                !
 ! R18   R(10,57)                1.4603         estimate D2E/DX2                !
 ! R19   R(10,59)                1.4546         estimate D2E/DX2                !
 ! R20   R(11,29)                1.4557         estimate D2E/DX2                !
 ! R21   R(11,59)                1.3949         estimate D2E/DX2                !
 ! R22   R(12,13)                1.3949         estimate D2E/DX2                !
 ! R23   R(12,29)                1.4558         estimate D2E/DX2                !
 ! R24   R(13,14)                1.4546         estimate D2E/DX2                !
 ! R25   R(13,39)                1.4545         estimate D2E/DX2                !
 ! R26   R(14,15)                1.3902         estimate D2E/DX2                !
 ! R27   R(14,28)                1.4604         estimate D2E/DX2                !
 ! R28   R(15,16)                1.4606         estimate D2E/DX2                !
 ! R29   R(16,17)                1.4394         estimate D2E/DX2                !
 ! R30   R(16,26)                1.4061         estimate D2E/DX2                !
 ! R31   R(17,18)                1.4061         estimate D2E/DX2                !
 ! R32   R(18,19)                1.4401         estimate D2E/DX2                !
 ! R33   R(18,24)                1.4602         estimate D2E/DX2                !
 ! R34   R(19,22)                1.4603         estimate D2E/DX2                !
 ! R35   R(20,21)                1.4605         estimate D2E/DX2                !
 ! R36   R(20,56)                1.4393         estimate D2E/DX2                !
 ! R37   R(21,22)                1.3904         estimate D2E/DX2                !
 ! R38   R(21,54)                1.4545         estimate D2E/DX2                !
 ! R39   R(22,23)                1.4545         estimate D2E/DX2                !
 ! R40   R(23,24)                1.4545         estimate D2E/DX2                !
 ! R41   R(23,52)                1.395          estimate D2E/DX2                !
 ! R42   R(24,25)                1.3905         estimate D2E/DX2                !
 ! R43   R(25,26)                1.4605         estimate D2E/DX2                !
 ! R44   R(25,50)                1.4545         estimate D2E/DX2                !
 ! R45   R(26,27)                1.4393         estimate D2E/DX2                !
 ! R46   R(27,28)                1.4066         estimate D2E/DX2                !
 ! R47   R(27,49)                1.4603         estimate D2E/DX2                !
 ! R48   R(28,38)                1.4393         estimate D2E/DX2                !
 ! R49   R(29,58)                1.395          estimate D2E/DX2                !
 ! R50   R(30,31)                1.4063         estimate D2E/DX2                !
 ! R51   R(30,37)                1.4394         estimate D2E/DX2                !
 ! R52   R(30,60)                1.4609         estimate D2E/DX2                !
 ! R53   R(31,32)                1.4401         estimate D2E/DX2                !
 ! R54   R(31,40)                1.4603         estimate D2E/DX2                !
 ! R55   R(32,33)                1.4062         estimate D2E/DX2                !
 ! R56   R(32,41)                1.4602         estimate D2E/DX2                !
 ! R57   R(33,34)                1.4609         estimate D2E/DX2                !
 ! R58   R(33,44)                1.4394         estimate D2E/DX2                !
 ! R59   R(34,46)                1.4537         estimate D2E/DX2                !
 ! R60   R(34,60)                1.3905         estimate D2E/DX2                !
 ! R61   R(35,36)                1.4547         estimate D2E/DX2                !
 ! R62   R(35,48)                1.3954         estimate D2E/DX2                !
 ! R63   R(35,60)                1.4537         estimate D2E/DX2                !
 ! R64   R(36,37)                1.4607         estimate D2E/DX2                !
 ! R65   R(36,49)                1.3902         estimate D2E/DX2                !
 ! R66   R(37,38)                1.4061         estimate D2E/DX2                !
 ! R67   R(38,39)                1.4605         estimate D2E/DX2                !
 ! R68   R(39,40)                1.3904         estimate D2E/DX2                !
 ! R69   R(40,58)                1.4546         estimate D2E/DX2                !
 ! R70   R(41,42)                1.3905         estimate D2E/DX2                !
 ! R71   R(41,58)                1.4545         estimate D2E/DX2                !
 ! R72   R(42,43)                1.4605         estimate D2E/DX2                !
 ! R73   R(42,59)                1.4545         estimate D2E/DX2                !
 ! R74   R(43,44)                1.4061         estimate D2E/DX2                !
 ! R75   R(43,57)                1.4393         estimate D2E/DX2                !
 ! R76   R(44,45)                1.4606         estimate D2E/DX2                !
 ! R77   R(45,46)                1.4545         estimate D2E/DX2                !
 ! R78   R(45,55)                1.3902         estimate D2E/DX2                !
 ! R79   R(46,47)                1.3954         estimate D2E/DX2                !
 ! R80   R(47,48)                1.4556         estimate D2E/DX2                !
 ! R81   R(47,53)                1.456          estimate D2E/DX2                !
 ! R82   R(48,51)                1.4561         estimate D2E/DX2                !
 ! R83   R(49,50)                1.4546         estimate D2E/DX2                !
 ! R84   R(50,51)                1.3949         estimate D2E/DX2                !
 ! R85   R(51,52)                1.4557         estimate D2E/DX2                !
 ! R86   R(52,53)                1.4558         estimate D2E/DX2                !
 ! R87   R(53,54)                1.3949         estimate D2E/DX2                !
 ! R88   R(54,55)                1.4546         estimate D2E/DX2                !
 ! R89   R(55,56)                1.4604         estimate D2E/DX2                !
 ! R90   R(56,57)                1.4065         estimate D2E/DX2                !
 ! A1    A(2,1,6)              120.1028         estimate D2E/DX2                !
 ! A2    A(2,1,7)              107.9329         estimate D2E/DX2                !
 ! A3    A(6,1,7)              119.763          estimate D2E/DX2                !
 ! A4    A(1,2,3)              119.9538         estimate D2E/DX2                !
 ! A5    A(1,2,9)              107.8202         estimate D2E/DX2                !
 ! A6    A(3,2,9)              119.9065         estimate D2E/DX2                !
 ! A7    A(2,3,4)              119.9425         estimate D2E/DX2                !
 ! A8    A(2,3,11)             119.9597         estimate D2E/DX2                !
 ! A9    A(4,3,11)             107.9957         estimate D2E/DX2                !
 ! A10   A(3,4,5)              119.9484         estimate D2E/DX2                !
 ! A11   A(3,4,12)             108.011          estimate D2E/DX2                !
 ! A12   A(5,4,12)             119.9506         estimate D2E/DX2                !
 ! A13   A(4,5,6)              119.9514         estimate D2E/DX2                !
 ! A14   A(4,5,15)             119.9141         estimate D2E/DX2                !
 ! A15   A(6,5,15)             107.8271         estimate D2E/DX2                !
 ! A16   A(1,6,5)              120.1005         estimate D2E/DX2                !
 ! A17   A(1,6,17)             119.7647         estimate D2E/DX2                !
 ! A18   A(5,6,17)             107.9306         estimate D2E/DX2                !
 ! A19   A(1,7,8)              108.1671         estimate D2E/DX2                !
 ! A20   A(1,7,19)             120.3599         estimate D2E/DX2                !
 ! A21   A(8,7,19)             119.8539         estimate D2E/DX2                !
 ! A22   A(7,8,9)              108.1658         estimate D2E/DX2                !
 ! A23   A(7,8,20)             119.8998         estimate D2E/DX2                !
 ! A24   A(9,8,20)             120.3617         estimate D2E/DX2                !
 ! A25   A(2,9,8)              107.9138         estimate D2E/DX2                !
 ! A26   A(2,9,10)             120.1146         estimate D2E/DX2                !
 ! A27   A(8,9,10)             119.766          estimate D2E/DX2                !
 ! A28   A(9,10,57)            119.7711         estimate D2E/DX2                !
 ! A29   A(9,10,59)            120.1277         estimate D2E/DX2                !
 ! A30   A(57,10,59)           107.9356         estimate D2E/DX2                !
 ! A31   A(3,11,29)            107.9926         estimate D2E/DX2                !
 ! A32   A(3,11,59)            119.9871         estimate D2E/DX2                !
 ! A33   A(29,11,59)           119.9716         estimate D2E/DX2                !
 ! A34   A(4,12,13)            119.9898         estimate D2E/DX2                !
 ! A35   A(4,12,29)            107.99           estimate D2E/DX2                !
 ! A36   A(13,12,29)           119.9748         estimate D2E/DX2                !
 ! A37   A(12,13,14)           119.9122         estimate D2E/DX2                !
 ! A38   A(12,13,39)           119.9333         estimate D2E/DX2                !
 ! A39   A(14,13,39)           107.786          estimate D2E/DX2                !
 ! A40   A(13,14,15)           120.1149         estimate D2E/DX2                !
 ! A41   A(13,14,28)           107.9334         estimate D2E/DX2                !
 ! A42   A(15,14,28)           119.769          estimate D2E/DX2                !
 ! A43   A(5,15,14)            120.1175         estimate D2E/DX2                !
 ! A44   A(5,15,16)            107.9128         estimate D2E/DX2                !
 ! A45   A(14,15,16)           119.7687         estimate D2E/DX2                !
 ! A46   A(15,16,17)           108.1713         estimate D2E/DX2                !
 ! A47   A(15,16,26)           120.3677         estimate D2E/DX2                !
 ! A48   A(17,16,26)           119.9211         estimate D2E/DX2                !
 ! A49   A(6,17,16)            108.1581         estimate D2E/DX2                !
 ! A50   A(6,17,18)            120.3576         estimate D2E/DX2                !
 ! A51   A(16,17,18)           119.8329         estimate D2E/DX2                !
 ! A52   A(17,18,19)           119.8774         estimate D2E/DX2                !
 ! A53   A(17,18,24)           120.3768         estimate D2E/DX2                !
 ! A54   A(19,18,24)           108.1596         estimate D2E/DX2                !
 ! A55   A(7,19,18)            119.872          estimate D2E/DX2                !
 ! A56   A(7,19,22)            120.3699         estimate D2E/DX2                !
 ! A57   A(18,19,22)           108.1612         estimate D2E/DX2                !
 ! A58   A(8,20,21)            120.3485         estimate D2E/DX2                !
 ! A59   A(8,20,56)            119.8607         estimate D2E/DX2                !
 ! A60   A(21,20,56)           108.165          estimate D2E/DX2                !
 ! A61   A(20,21,22)           119.7574         estimate D2E/DX2                !
 ! A62   A(20,21,54)           107.9353         estimate D2E/DX2                !
 ! A63   A(22,21,54)           120.084          estimate D2E/DX2                !
 ! A64   A(19,22,21)           119.7648         estimate D2E/DX2                !
 ! A65   A(19,22,23)           107.9404         estimate D2E/DX2                !
 ! A66   A(21,22,23)           120.1267         estimate D2E/DX2                !
 ! A67   A(22,23,24)           107.792          estimate D2E/DX2                !
 ! A68   A(22,23,52)           119.9079         estimate D2E/DX2                !
 ! A69   A(24,23,52)           119.9027         estimate D2E/DX2                !
 ! A70   A(18,24,23)           107.9467         estimate D2E/DX2                !
 ! A71   A(18,24,25)           119.7763         estimate D2E/DX2                !
 ! A72   A(23,24,25)           120.1294         estimate D2E/DX2                !
 ! A73   A(24,25,26)           119.7464         estimate D2E/DX2                !
 ! A74   A(24,25,50)           120.0856         estimate D2E/DX2                !
 ! A75   A(26,25,50)           107.9429         estimate D2E/DX2                !
 ! A76   A(16,26,25)           120.3408         estimate D2E/DX2                !
 ! A77   A(16,26,27)           119.8512         estimate D2E/DX2                !
 ! A78   A(25,26,27)           108.1594         estimate D2E/DX2                !
 ! A79   A(26,27,28)           119.9051         estimate D2E/DX2                !
 ! A80   A(26,27,49)           108.1833         estimate D2E/DX2                !
 ! A81   A(28,27,49)           120.3402         estimate D2E/DX2                !
 ! A82   A(14,28,27)           120.3319         estimate D2E/DX2                !
 ! A83   A(14,28,38)           108.1802         estimate D2E/DX2                !
 ! A84   A(27,28,38)           119.8935         estimate D2E/DX2                !
 ! A85   A(11,29,12)           108.0106         estimate D2E/DX2                !
 ! A86   A(11,29,58)           119.9796         estimate D2E/DX2                !
 ! A87   A(12,29,58)           119.9722         estimate D2E/DX2                !
 ! A88   A(31,30,37)           119.8543         estimate D2E/DX2                !
 ! A89   A(31,30,60)           120.3597         estimate D2E/DX2                !
 ! A90   A(37,30,60)           108.1678         estimate D2E/DX2                !
 ! A91   A(30,31,32)           119.8718         estimate D2E/DX2                !
 ! A92   A(30,31,40)           120.3697         estimate D2E/DX2                !
 ! A93   A(32,31,40)           108.161          estimate D2E/DX2                !
 ! A94   A(31,32,33)           119.8774         estimate D2E/DX2                !
 ! A95   A(31,32,41)           108.1596         estimate D2E/DX2                !
 ! A96   A(33,32,41)           120.3767         estimate D2E/DX2                !
 ! A97   A(32,33,34)           120.3573         estimate D2E/DX2                !
 ! A98   A(32,33,44)           119.8329         estimate D2E/DX2                !
 ! A99   A(34,33,44)           108.1579         estimate D2E/DX2                !
 ! A100  A(33,34,46)           107.9307         estimate D2E/DX2                !
 ! A101  A(33,34,60)           119.7643         estimate D2E/DX2                !
 ! A102  A(46,34,60)           120.1008         estimate D2E/DX2                !
 ! A103  A(36,35,48)           119.908          estimate D2E/DX2                !
 ! A104  A(36,35,60)           107.8201         estimate D2E/DX2                !
 ! A105  A(48,35,60)           119.9541         estimate D2E/DX2                !
 ! A106  A(35,36,37)           107.9141         estimate D2E/DX2                !
 ! A107  A(35,36,49)           120.112          estimate D2E/DX2                !
 ! A108  A(37,36,49)           119.7628         estimate D2E/DX2                !
 ! A109  A(30,37,36)           108.1657         estimate D2E/DX2                !
 ! A110  A(30,37,38)           119.8996         estimate D2E/DX2                !
 ! A111  A(36,37,38)           120.3632         estimate D2E/DX2                !
 ! A112  A(28,38,37)           119.8612         estimate D2E/DX2                !
 ! A113  A(28,38,39)           108.1646         estimate D2E/DX2                !
 ! A114  A(37,38,39)           120.3484         estimate D2E/DX2                !
 ! A115  A(13,39,38)           107.9358         estimate D2E/DX2                !
 ! A116  A(13,39,40)           120.0837         estimate D2E/DX2                !
 ! A117  A(38,39,40)           119.7578         estimate D2E/DX2                !
 ! A118  A(31,40,39)           119.7645         estimate D2E/DX2                !
 ! A119  A(31,40,58)           107.9404         estimate D2E/DX2                !
 ! A120  A(39,40,58)           120.1267         estimate D2E/DX2                !
 ! A121  A(32,41,42)           119.7752         estimate D2E/DX2                !
 ! A122  A(32,41,58)           107.9468         estimate D2E/DX2                !
 ! A123  A(42,41,58)           120.1291         estimate D2E/DX2                !
 ! A124  A(41,42,43)           119.7476         estimate D2E/DX2                !
 ! A125  A(41,42,59)           120.0856         estimate D2E/DX2                !
 ! A126  A(43,42,59)           107.9427         estimate D2E/DX2                !
 ! A127  A(42,43,44)           120.3415         estimate D2E/DX2                !
 ! A128  A(42,43,57)           108.1592         estimate D2E/DX2                !
 ! A129  A(44,43,57)           119.8511         estimate D2E/DX2                !
 ! A130  A(33,44,43)           119.9204         estimate D2E/DX2                !
 ! A131  A(33,44,45)           108.1715         estimate D2E/DX2                !
 ! A132  A(43,44,45)           120.3679         estimate D2E/DX2                !
 ! A133  A(44,45,46)           107.9126         estimate D2E/DX2                !
 ! A134  A(44,45,55)           119.7685         estimate D2E/DX2                !
 ! A135  A(46,45,55)           120.1176         estimate D2E/DX2                !
 ! A136  A(34,46,45)           107.827          estimate D2E/DX2                !
 ! A137  A(34,46,47)           119.9512         estimate D2E/DX2                !
 ! A138  A(45,46,47)           119.914          estimate D2E/DX2                !
 ! A139  A(46,47,48)           119.9486         estimate D2E/DX2                !
 ! A140  A(46,47,53)           119.9503         estimate D2E/DX2                !
 ! A141  A(48,47,53)           108.0112         estimate D2E/DX2                !
 ! A142  A(35,48,47)           119.9422         estimate D2E/DX2                !
 ! A143  A(35,48,51)           119.9595         estimate D2E/DX2                !
 ! A144  A(47,48,51)           107.9953         estimate D2E/DX2                !
 ! A145  A(27,49,36)           119.7728         estimate D2E/DX2                !
 ! A146  A(27,49,50)           107.9363         estimate D2E/DX2                !
 ! A147  A(36,49,50)           120.1281         estimate D2E/DX2                !
 ! A148  A(25,50,49)           107.778          estimate D2E/DX2                !
 ! A149  A(25,50,51)           119.9295         estimate D2E/DX2                !
 ! A150  A(49,50,51)           119.9032         estimate D2E/DX2                !
 ! A151  A(48,51,50)           119.9881         estimate D2E/DX2                !
 ! A152  A(48,51,52)           107.9932         estimate D2E/DX2                !
 ! A153  A(50,51,52)           119.9723         estimate D2E/DX2                !
 ! A154  A(23,52,51)           119.9792         estimate D2E/DX2                !
 ! A155  A(23,52,53)           119.9726         estimate D2E/DX2                !
 ! A156  A(51,52,53)           108.0104         estimate D2E/DX2                !
 ! A157  A(47,53,52)           107.9899         estimate D2E/DX2                !
 ! A158  A(47,53,54)           119.9901         estimate D2E/DX2                !
 ! A159  A(52,53,54)           119.9746         estimate D2E/DX2                !
 ! A160  A(21,54,53)           119.9331         estimate D2E/DX2                !
 ! A161  A(21,54,55)           107.7861         estimate D2E/DX2                !
 ! A162  A(53,54,55)           119.9121         estimate D2E/DX2                !
 ! A163  A(45,55,54)           120.1149         estimate D2E/DX2                !
 ! A164  A(45,55,56)           119.7691         estimate D2E/DX2                !
 ! A165  A(54,55,56)           107.9334         estimate D2E/DX2                !
 ! A166  A(20,56,55)           108.18           estimate D2E/DX2                !
 ! A167  A(20,56,57)           119.8934         estimate D2E/DX2                !
 ! A168  A(55,56,57)           120.3326         estimate D2E/DX2                !
 ! A169  A(10,57,43)           108.1832         estimate D2E/DX2                !
 ! A170  A(10,57,56)           120.3408         estimate D2E/DX2                !
 ! A171  A(43,57,56)           119.9045         estimate D2E/DX2                !
 ! A172  A(29,58,40)           119.9081         estimate D2E/DX2                !
 ! A173  A(29,58,41)           119.9025         estimate D2E/DX2                !
 ! A174  A(40,58,41)           107.7921         estimate D2E/DX2                !
 ! A175  A(10,59,11)           119.9032         estimate D2E/DX2                !
 ! A176  A(10,59,42)           107.7791         estimate D2E/DX2                !
 ! A177  A(11,59,42)           119.9303         estimate D2E/DX2                !
 ! A178  A(30,60,34)           119.7641         estimate D2E/DX2                !
 ! A179  A(30,60,35)           107.9321         estimate D2E/DX2                !
 ! A180  A(34,60,35)           120.1025         estimate D2E/DX2                !
 ! D1    D(6,1,2,3)              0.2149         estimate D2E/DX2                !
 ! D2    D(6,1,2,9)            142.372          estimate D2E/DX2                !
 ! D3    D(7,1,2,3)           -142.0385         estimate D2E/DX2                !
 ! D4    D(7,1,2,9)              0.1187         estimate D2E/DX2                !
 ! D5    D(2,1,6,5)             -0.0168         estimate D2E/DX2                !
 ! D6    D(2,1,6,17)          -137.8722         estimate D2E/DX2                !
 ! D7    D(7,1,6,5)            137.8438         estimate D2E/DX2                !
 ! D8    D(7,1,6,17)            -0.0116         estimate D2E/DX2                !
 ! D9    D(2,1,7,8)             -0.0634         estimate D2E/DX2                !
 ! D10   D(2,1,7,19)           143.0079         estimate D2E/DX2                !
 ! D11   D(6,1,7,8)           -142.4678         estimate D2E/DX2                !
 ! D12   D(6,1,7,19)             0.6035         estimate D2E/DX2                !
 ! D13   D(1,2,3,4)             -0.2022         estimate D2E/DX2                !
 ! D14   D(1,2,3,11)           137.8319         estimate D2E/DX2                !
 ! D15   D(9,2,3,4)           -137.8424         estimate D2E/DX2                !
 ! D16   D(9,2,3,11)             0.1917         estimate D2E/DX2                !
 ! D17   D(1,2,9,8)             -0.1287         estimate D2E/DX2                !
 ! D18   D(1,2,9,10)          -142.3763         estimate D2E/DX2                !
 ! D19   D(3,2,9,8)            142.0496         estimate D2E/DX2                !
 ! D20   D(3,2,9,10)            -0.198          estimate D2E/DX2                !
 ! D21   D(2,3,4,5)             -0.0076         estimate D2E/DX2                !
 ! D22   D(2,3,4,12)           142.4783         estimate D2E/DX2                !
 ! D23   D(11,3,4,5)          -142.4807         estimate D2E/DX2                !
 ! D24   D(11,3,4,12)            0.0052         estimate D2E/DX2                !
 ! D25   D(2,3,11,29)         -142.4745         estimate D2E/DX2                !
 ! D26   D(2,3,11,59)            0.0723         estimate D2E/DX2                !
 ! D27   D(4,3,11,29)           -0.0091         estimate D2E/DX2                !
 ! D28   D(4,3,11,59)          142.5377         estimate D2E/DX2                !
 ! D29   D(3,4,5,6)              0.2054         estimate D2E/DX2                !
 ! D30   D(3,4,5,15)           137.8661         estimate D2E/DX2                !
 ! D31   D(12,4,5,6)          -137.853          estimate D2E/DX2                !
 ! D32   D(12,4,5,15)           -0.1923         estimate D2E/DX2                !
 ! D33   D(3,4,12,13)         -142.5515         estimate D2E/DX2                !
 ! D34   D(3,4,12,29)            0.0006         estimate D2E/DX2                !
 ! D35   D(5,4,12,13)           -0.0665         estimate D2E/DX2                !
 ! D36   D(5,4,12,29)          142.4856         estimate D2E/DX2                !
 ! D37   D(4,5,6,1)             -0.1934         estimate D2E/DX2                !
 ! D38   D(4,5,6,17)           142.0568         estimate D2E/DX2                !
 ! D39   D(15,5,6,1)          -142.3697         estimate D2E/DX2                !
 ! D40   D(15,5,6,17)           -0.1195         estimate D2E/DX2                !
 ! D41   D(4,5,15,14)            0.2105         estimate D2E/DX2                !
 ! D42   D(4,5,15,16)         -142.0438         estimate D2E/DX2                !
 ! D43   D(6,5,15,14)          142.4035         estimate D2E/DX2                !
 ! D44   D(6,5,15,16)            0.1492         estimate D2E/DX2                !
 ! D45   D(1,6,17,16)          142.4434         estimate D2E/DX2                !
 ! D46   D(1,6,17,18)           -0.5751         estimate D2E/DX2                !
 ! D47   D(5,6,17,16)            0.0439         estimate D2E/DX2                !
 ! D48   D(5,6,17,18)         -142.9747         estimate D2E/DX2                !
 ! D49   D(1,7,8,9)             -0.0164         estimate D2E/DX2                !
 ! D50   D(1,7,8,20)           143.3364         estimate D2E/DX2                !
 ! D51   D(19,7,8,9)          -143.3073         estimate D2E/DX2                !
 ! D52   D(19,7,8,20)            0.0455         estimate D2E/DX2                !
 ! D53   D(1,7,19,18)           -0.6086         estimate D2E/DX2                !
 ! D54   D(1,7,19,22)         -139.4765         estimate D2E/DX2                !
 ! D55   D(8,7,19,18)          138.2273         estimate D2E/DX2                !
 ! D56   D(8,7,19,22)           -0.6406         estimate D2E/DX2                !
 ! D57   D(7,8,9,2)              0.09           estimate D2E/DX2                !
 ! D58   D(7,8,9,10)           142.4926         estimate D2E/DX2                !
 ! D59   D(20,8,9,2)          -143.0627         estimate D2E/DX2                !
 ! D60   D(20,8,9,10)           -0.6601         estimate D2E/DX2                !
 ! D61   D(7,8,20,21)            0.5896         estimate D2E/DX2                !
 ! D62   D(7,8,20,56)         -138.2351         estimate D2E/DX2                !
 ! D63   D(9,8,20,21)          139.4968         estimate D2E/DX2                !
 ! D64   D(9,8,20,56)            0.6721         estimate D2E/DX2                !
 ! D65   D(2,9,10,57)          137.8574         estimate D2E/DX2                !
 ! D66   D(2,9,10,59)           -0.0577         estimate D2E/DX2                !
 ! D67   D(8,9,10,57)            0.0106         estimate D2E/DX2                !
 ! D68   D(8,9,10,59)         -137.9044         estimate D2E/DX2                !
 ! D69   D(9,10,57,43)        -142.5316         estimate D2E/DX2                !
 ! D70   D(9,10,57,56)           0.6262         estimate D2E/DX2                !
 ! D71   D(59,10,57,43)         -0.0705         estimate D2E/DX2                !
 ! D72   D(59,10,57,56)        143.0873         estimate D2E/DX2                !
 ! D73   D(9,10,59,11)           0.3219         estimate D2E/DX2                !
 ! D74   D(9,10,59,42)         142.4003         estimate D2E/DX2                !
 ! D75   D(57,10,59,11)       -141.9809         estimate D2E/DX2                !
 ! D76   D(57,10,59,42)          0.0975         estimate D2E/DX2                !
 ! D77   D(3,11,29,12)           0.0095         estimate D2E/DX2                !
 ! D78   D(3,11,29,58)         142.5723         estimate D2E/DX2                !
 ! D79   D(59,11,29,12)       -142.5441         estimate D2E/DX2                !
 ! D80   D(59,11,29,58)          0.0186         estimate D2E/DX2                !
 ! D81   D(3,11,59,10)          -0.3274         estimate D2E/DX2                !
 ! D82   D(3,11,59,42)        -137.8506         estimate D2E/DX2                !
 ! D83   D(29,11,59,10)        137.786          estimate D2E/DX2                !
 ! D84   D(29,11,59,42)          0.2628         estimate D2E/DX2                !
 ! D85   D(4,12,13,14)           0.3054         estimate D2E/DX2                !
 ! D86   D(4,12,13,39)         137.8592         estimate D2E/DX2                !
 ! D87   D(29,12,13,14)       -137.8119         estimate D2E/DX2                !
 ! D88   D(29,12,13,39)         -0.2581         estimate D2E/DX2                !
 ! D89   D(4,12,29,11)          -0.0063         estimate D2E/DX2                !
 ! D90   D(4,12,29,58)        -142.5723         estimate D2E/DX2                !
 ! D91   D(13,12,29,11)        142.5525         estimate D2E/DX2                !
 ! D92   D(13,12,29,58)         -0.0135         estimate D2E/DX2                !
 ! D93   D(12,13,14,15)         -0.2878         estimate D2E/DX2                !
 ! D94   D(12,13,14,28)        141.992          estimate D2E/DX2                !
 ! D95   D(39,13,14,15)       -142.392          estimate D2E/DX2                !
 ! D96   D(39,13,14,28)         -0.1122         estimate D2E/DX2                !
 ! D97   D(12,13,39,38)       -141.9837         estimate D2E/DX2                !
 ! D98   D(12,13,39,40)          0.2402         estimate D2E/DX2                !
 ! D99   D(14,13,39,38)          0.111          estimate D2E/DX2                !
 ! D100  D(14,13,39,40)        142.3349         estimate D2E/DX2                !
 ! D101  D(13,14,15,5)           0.0287         estimate D2E/DX2                !
 ! D102  D(13,14,15,16)        137.8816         estimate D2E/DX2                !
 ! D103  D(28,14,15,5)        -137.8598         estimate D2E/DX2                !
 ! D104  D(28,14,15,16)         -0.0069         estimate D2E/DX2                !
 ! D105  D(13,14,28,27)       -143.0516         estimate D2E/DX2                !
 ! D106  D(13,14,28,38)          0.0708         estimate D2E/DX2                !
 ! D107  D(15,14,28,27)         -0.6182         estimate D2E/DX2                !
 ! D108  D(15,14,28,38)        142.5042         estimate D2E/DX2                !
 ! D109  D(5,15,16,17)          -0.1227         estimate D2E/DX2                !
 ! D110  D(5,15,16,26)         143.0833         estimate D2E/DX2                !
 ! D111  D(14,15,16,17)       -142.5321         estimate D2E/DX2                !
 ! D112  D(14,15,16,26)          0.6739         estimate D2E/DX2                !
 ! D113  D(15,16,17,6)           0.0486         estimate D2E/DX2                !
 ! D114  D(15,16,17,18)        143.2953         estimate D2E/DX2                !
 ! D115  D(26,16,17,6)        -143.3507         estimate D2E/DX2                !
 ! D116  D(26,16,17,18)         -0.1041         estimate D2E/DX2                !
 ! D117  D(15,16,26,25)       -139.5019         estimate D2E/DX2                !
 ! D118  D(15,16,26,27)         -0.7144         estimate D2E/DX2                !
 ! D119  D(17,16,26,25)         -0.5417         estimate D2E/DX2                !
 ! D120  D(17,16,26,27)        138.2458         estimate D2E/DX2                !
 ! D121  D(6,17,18,19)           0.5713         estimate D2E/DX2                !
 ! D122  D(6,17,18,24)         139.4553         estimate D2E/DX2                !
 ! D123  D(16,17,18,19)       -138.2112         estimate D2E/DX2                !
 ! D124  D(16,17,18,24)          0.6728         estimate D2E/DX2                !
 ! D125  D(17,18,19,7)           0.0211         estimate D2E/DX2                !
 ! D126  D(17,18,19,22)        143.345          estimate D2E/DX2                !
 ! D127  D(24,18,19,7)        -143.3201         estimate D2E/DX2                !
 ! D128  D(24,18,19,22)          0.0039         estimate D2E/DX2                !
 ! D129  D(17,18,24,23)       -143.0801         estimate D2E/DX2                !
 ! D130  D(17,18,24,25)         -0.5944         estimate D2E/DX2                !
 ! D131  D(19,18,24,23)          0.0445         estimate D2E/DX2                !
 ! D132  D(19,18,24,25)        142.5302         estimate D2E/DX2                !
 ! D133  D(7,19,22,21)           0.5993         estimate D2E/DX2                !
 ! D134  D(7,19,22,23)         143.0572         estimate D2E/DX2                !
 ! D135  D(18,19,22,21)       -142.5087         estimate D2E/DX2                !
 ! D136  D(18,19,22,23)         -0.0508         estimate D2E/DX2                !
 ! D137  D(8,20,21,22)          -0.6294         estimate D2E/DX2                !
 ! D138  D(8,20,21,54)        -142.9975         estimate D2E/DX2                !
 ! D139  D(56,20,21,22)        142.4356         estimate D2E/DX2                !
 ! D140  D(56,20,21,54)          0.0675         estimate D2E/DX2                !
 ! D141  D(8,20,56,55)         143.2792         estimate D2E/DX2                !
 ! D142  D(8,20,56,57)          -0.0342         estimate D2E/DX2                !
 ! D143  D(21,20,56,55)          0.0023         estimate D2E/DX2                !
 ! D144  D(21,20,56,57)       -143.311          estimate D2E/DX2                !
 ! D145  D(20,21,22,19)          0.0352         estimate D2E/DX2                !
 ! D146  D(20,21,22,23)       -137.8779         estimate D2E/DX2                !
 ! D147  D(54,21,22,19)        137.8638         estimate D2E/DX2                !
 ! D148  D(54,21,22,23)         -0.0493         estimate D2E/DX2                !
 ! D149  D(20,21,54,53)        141.9835         estimate D2E/DX2                !
 ! D150  D(20,21,54,55)         -0.1112         estimate D2E/DX2                !
 ! D151  D(22,21,54,53)         -0.2394         estimate D2E/DX2                !
 ! D152  D(22,21,54,55)       -142.334          estimate D2E/DX2                !
 ! D153  D(19,22,23,24)          0.0781         estimate D2E/DX2                !
 ! D154  D(19,22,23,52)       -141.9766         estimate D2E/DX2                !
 ! D155  D(21,22,23,24)        142.3753         estimate D2E/DX2                !
 ! D156  D(21,22,23,52)          0.3206         estimate D2E/DX2                !
 ! D157  D(22,23,24,18)         -0.0757         estimate D2E/DX2                !
 ! D158  D(22,23,24,25)       -142.4047         estimate D2E/DX2                !
 ! D159  D(52,23,24,18)        141.9813         estimate D2E/DX2                !
 ! D160  D(52,23,24,25)         -0.3477         estimate D2E/DX2                !
 ! D161  D(22,23,52,51)        137.8351         estimate D2E/DX2                !
 ! D162  D(22,23,52,53)         -0.3015         estimate D2E/DX2                !
 ! D163  D(24,23,52,51)          0.3215         estimate D2E/DX2                !
 ! D164  D(24,23,52,53)       -137.8152         estimate D2E/DX2                !
 ! D165  D(18,24,25,26)         -0.0512         estimate D2E/DX2                !
 ! D166  D(18,24,25,50)       -137.8801         estimate D2E/DX2                !
 ! D167  D(23,24,25,26)        137.8951         estimate D2E/DX2                !
 ! D168  D(23,24,25,50)          0.0661         estimate D2E/DX2                !
 ! D169  D(24,25,26,16)          0.6187         estimate D2E/DX2                !
 ! D170  D(24,25,26,27)       -142.4117         estimate D2E/DX2                !
 ! D171  D(50,25,26,16)        142.986          estimate D2E/DX2                !
 ! D172  D(50,25,26,27)         -0.0444         estimate D2E/DX2                !
 ! D173  D(24,25,50,49)        142.3036         estimate D2E/DX2                !
 ! D174  D(24,25,50,51)          0.2398         estimate D2E/DX2                !
 ! D175  D(26,25,50,49)          0.0872         estimate D2E/DX2                !
 ! D176  D(26,25,50,51)       -141.9766         estimate D2E/DX2                !
 ! D177  D(16,26,27,28)          0.0878         estimate D2E/DX2                !
 ! D178  D(16,26,27,49)       -143.2588         estimate D2E/DX2                !
 ! D179  D(25,26,27,28)        143.331          estimate D2E/DX2                !
 ! D180  D(25,26,27,49)         -0.0156         estimate D2E/DX2                !
 ! D181  D(26,27,28,14)          0.5791         estimate D2E/DX2                !
 ! D182  D(26,27,28,38)       -138.3001         estimate D2E/DX2                !
 ! D183  D(49,27,28,14)        139.4949         estimate D2E/DX2                !
 ! D184  D(49,27,28,38)          0.6157         estimate D2E/DX2                !
 ! D185  D(26,27,49,36)        142.5346         estimate D2E/DX2                !
 ! D186  D(26,27,49,50)          0.0697         estimate D2E/DX2                !
 ! D187  D(28,27,49,36)         -0.6234         estimate D2E/DX2                !
 ! D188  D(28,27,49,50)       -143.0884         estimate D2E/DX2                !
 ! D189  D(14,28,38,37)       -143.2787         estimate D2E/DX2                !
 ! D190  D(14,28,38,39)         -0.0019         estimate D2E/DX2                !
 ! D191  D(27,28,38,37)          0.0338         estimate D2E/DX2                !
 ! D192  D(27,28,38,39)        143.3106         estimate D2E/DX2                !
 ! D193  D(11,29,58,40)       -137.8354         estimate D2E/DX2                !
 ! D194  D(11,29,58,41)         -0.3217         estimate D2E/DX2                !
 ! D195  D(12,29,58,40)          0.3017         estimate D2E/DX2                !
 ! D196  D(12,29,58,41)        137.8153         estimate D2E/DX2                !
 ! D197  D(37,30,31,32)       -138.2279         estimate D2E/DX2                !
 ! D198  D(37,30,31,40)          0.639          estimate D2E/DX2                !
 ! D199  D(60,30,31,32)          0.6096         estimate D2E/DX2                !
 ! D200  D(60,30,31,40)        139.4766         estimate D2E/DX2                !
 ! D201  D(31,30,37,36)        143.311          estimate D2E/DX2                !
 ! D202  D(31,30,37,38)         -0.0439         estimate D2E/DX2                !
 ! D203  D(60,30,37,36)          0.0189         estimate D2E/DX2                !
 ! D204  D(60,30,37,38)       -143.336          estimate D2E/DX2                !
 ! D205  D(31,30,60,34)         -0.6048         estimate D2E/DX2                !
 ! D206  D(31,30,60,35)       -143.009          estimate D2E/DX2                !
 ! D207  D(37,30,60,34)        142.4679         estimate D2E/DX2                !
 ! D208  D(37,30,60,35)          0.0637         estimate D2E/DX2                !
 ! D209  D(30,31,32,33)         -0.0214         estimate D2E/DX2                !
 ! D210  D(30,31,32,41)        143.3195         estimate D2E/DX2                !
 ! D211  D(40,31,32,33)       -143.3446         estimate D2E/DX2                !
 ! D212  D(40,31,32,41)         -0.0037         estimate D2E/DX2                !
 ! D213  D(30,31,40,39)         -0.5989         estimate D2E/DX2                !
 ! D214  D(30,31,40,58)       -143.0565         estimate D2E/DX2                !
 ! D215  D(32,31,40,39)        142.5083         estimate D2E/DX2                !
 ! D216  D(32,31,40,58)          0.0507         estimate D2E/DX2                !
 ! D217  D(31,32,33,34)         -0.5714         estimate D2E/DX2                !
 ! D218  D(31,32,33,44)        138.2104         estimate D2E/DX2                !
 ! D219  D(41,32,33,34)       -139.4551         estimate D2E/DX2                !
 ! D220  D(41,32,33,44)         -0.6734         estimate D2E/DX2                !
 ! D221  D(31,32,41,42)       -142.5289         estimate D2E/DX2                !
 ! D222  D(31,32,41,58)         -0.0448         estimate D2E/DX2                !
 ! D223  D(33,32,41,42)          0.5955         estimate D2E/DX2                !
 ! D224  D(33,32,41,58)        143.0797         estimate D2E/DX2                !
 ! D225  D(32,33,34,46)        142.9744         estimate D2E/DX2                !
 ! D226  D(32,33,34,60)          0.5749         estimate D2E/DX2                !
 ! D227  D(44,33,34,46)         -0.0435         estimate D2E/DX2                !
 ! D228  D(44,33,34,60)       -142.443          estimate D2E/DX2                !
 ! D229  D(32,33,44,43)          0.1042         estimate D2E/DX2                !
 ! D230  D(32,33,44,45)       -143.2949         estimate D2E/DX2                !
 ! D231  D(34,33,44,43)        143.3501         estimate D2E/DX2                !
 ! D232  D(34,33,44,45)         -0.049          estimate D2E/DX2                !
 ! D233  D(33,34,46,45)          0.1193         estimate D2E/DX2                !
 ! D234  D(33,34,46,47)       -142.0567         estimate D2E/DX2                !
 ! D235  D(60,34,46,45)        142.3692         estimate D2E/DX2                !
 ! D236  D(60,34,46,47)          0.1932         estimate D2E/DX2                !
 ! D237  D(33,34,60,30)          0.0125         estimate D2E/DX2                !
 ! D238  D(33,34,60,35)        137.8728         estimate D2E/DX2                !
 ! D239  D(46,34,60,30)       -137.8428         estimate D2E/DX2                !
 ! D240  D(46,34,60,35)          0.0175         estimate D2E/DX2                !
 ! D241  D(48,35,36,37)       -142.0473         estimate D2E/DX2                !
 ! D242  D(48,35,36,49)          0.1918         estimate D2E/DX2                !
 ! D243  D(60,35,36,37)          0.1332         estimate D2E/DX2                !
 ! D244  D(60,35,36,49)        142.3724         estimate D2E/DX2                !
 ! D245  D(36,35,48,47)        137.845          estimate D2E/DX2                !
 ! D246  D(36,35,48,51)         -0.1877         estimate D2E/DX2                !
 ! D247  D(60,35,48,47)          0.2023         estimate D2E/DX2                !
 ! D248  D(60,35,48,51)       -137.8304         estimate D2E/DX2                !
 ! D249  D(36,35,60,30)         -0.1217         estimate D2E/DX2                !
 ! D250  D(36,35,60,34)       -142.3754         estimate D2E/DX2                !
 ! D251  D(48,35,60,30)        142.0383         estimate D2E/DX2                !
 ! D252  D(48,35,60,34)         -0.2155         estimate D2E/DX2                !
 ! D253  D(35,36,37,30)         -0.0943         estimate D2E/DX2                !
 ! D254  D(35,36,37,38)        143.0597         estimate D2E/DX2                !
 ! D255  D(49,36,37,30)       -142.4888         estimate D2E/DX2                !
 ! D256  D(49,36,37,38)          0.6652         estimate D2E/DX2                !
 ! D257  D(35,36,49,27)       -137.8546         estimate D2E/DX2                !
 ! D258  D(35,36,49,50)          0.0649         estimate D2E/DX2                !
 ! D259  D(37,36,49,27)         -0.0159         estimate D2E/DX2                !
 ! D260  D(37,36,49,50)        137.9036         estimate D2E/DX2                !
 ! D261  D(30,37,38,28)        138.2345         estimate D2E/DX2                !
 ! D262  D(30,37,38,39)         -0.59           estimate D2E/DX2                !
 ! D263  D(36,37,38,28)         -0.6744         estimate D2E/DX2                !
 ! D264  D(36,37,38,39)       -139.4988         estimate D2E/DX2                !
 ! D265  D(28,38,39,13)         -0.0677         estimate D2E/DX2                !
 ! D266  D(28,38,39,40)       -142.4366         estimate D2E/DX2                !
 ! D267  D(37,38,39,13)        142.9976         estimate D2E/DX2                !
 ! D268  D(37,38,39,40)          0.6287         estimate D2E/DX2                !
 ! D269  D(13,39,40,31)       -137.8642         estimate D2E/DX2                !
 ! D270  D(13,39,40,58)          0.0486         estimate D2E/DX2                !
 ! D271  D(38,39,40,31)         -0.0345         estimate D2E/DX2                !
 ! D272  D(38,39,40,58)        137.8783         estimate D2E/DX2                !
 ! D273  D(31,40,58,29)        141.9765         estimate D2E/DX2                !
 ! D274  D(31,40,58,41)         -0.0781         estimate D2E/DX2                !
 ! D275  D(39,40,58,29)         -0.3203         estimate D2E/DX2                !
 ! D276  D(39,40,58,41)       -142.3749         estimate D2E/DX2                !
 ! D277  D(32,41,42,43)          0.05           estimate D2E/DX2                !
 ! D278  D(32,41,42,59)        137.8803         estimate D2E/DX2                !
 ! D279  D(58,41,42,43)       -137.8946         estimate D2E/DX2                !
 ! D280  D(58,41,42,59)         -0.0643         estimate D2E/DX2                !
 ! D281  D(32,41,58,29)       -141.9812         estimate D2E/DX2                !
 ! D282  D(32,41,58,40)          0.0759         estimate D2E/DX2                !
 ! D283  D(42,41,58,29)          0.3459         estimate D2E/DX2                !
 ! D284  D(42,41,58,40)        142.4029         estimate D2E/DX2                !
 ! D285  D(41,42,43,44)         -0.618          estimate D2E/DX2                !
 ! D286  D(41,42,43,57)        142.4129         estimate D2E/DX2                !
 ! D287  D(59,42,43,44)       -142.9865         estimate D2E/DX2                !
 ! D288  D(59,42,43,57)          0.0444         estimate D2E/DX2                !
 ! D289  D(41,42,59,10)       -142.3058         estimate D2E/DX2                !
 ! D290  D(41,42,59,11)         -0.2395         estimate D2E/DX2                !
 ! D291  D(43,42,59,10)         -0.0877         estimate D2E/DX2                !
 ! D292  D(43,42,59,11)        141.9786         estimate D2E/DX2                !
 ! D293  D(42,43,44,33)          0.5415         estimate D2E/DX2                !
 ! D294  D(42,43,44,45)        139.5013         estimate D2E/DX2                !
 ! D295  D(57,43,44,33)       -138.2465         estimate D2E/DX2                !
 ! D296  D(57,43,44,45)          0.7133         estimate D2E/DX2                !
 ! D297  D(42,43,57,10)          0.0161         estimate D2E/DX2                !
 ! D298  D(42,43,57,56)       -143.3308         estimate D2E/DX2                !
 ! D299  D(44,43,57,10)        143.2601         estimate D2E/DX2                !
 ! D300  D(44,43,57,56)         -0.0868         estimate D2E/DX2                !
 ! D301  D(33,44,45,46)          0.1229         estimate D2E/DX2                !
 ! D302  D(33,44,45,55)        142.532          estimate D2E/DX2                !
 ! D303  D(43,44,45,46)       -143.0825         estimate D2E/DX2                !
 ! D304  D(43,44,45,55)         -0.6734         estimate D2E/DX2                !
 ! D305  D(44,45,46,34)         -0.1492         estimate D2E/DX2                !
 ! D306  D(44,45,46,47)        142.0434         estimate D2E/DX2                !
 ! D307  D(55,45,46,34)       -142.4031         estimate D2E/DX2                !
 ! D308  D(55,45,46,47)         -0.2105         estimate D2E/DX2                !
 ! D309  D(44,45,55,54)       -137.8817         estimate D2E/DX2                !
 ! D310  D(44,45,55,56)          0.007          estimate D2E/DX2                !
 ! D311  D(46,45,55,54)         -0.0292         estimate D2E/DX2                !
 ! D312  D(46,45,55,56)        137.8595         estimate D2E/DX2                !
 ! D313  D(34,46,47,48)         -0.2057         estimate D2E/DX2                !
 ! D314  D(34,46,47,53)        137.8529         estimate D2E/DX2                !
 ! D315  D(45,46,47,48)       -137.8661         estimate D2E/DX2                !
 ! D316  D(45,46,47,53)          0.1926         estimate D2E/DX2                !
 ! D317  D(46,47,48,35)          0.008          estimate D2E/DX2                !
 ! D318  D(46,47,48,51)        142.4798         estimate D2E/DX2                !
 ! D319  D(53,47,48,35)       -142.4779         estimate D2E/DX2                !
 ! D320  D(53,47,48,51)         -0.0062         estimate D2E/DX2                !
 ! D321  D(46,47,53,52)       -142.4855         estimate D2E/DX2                !
 ! D322  D(46,47,53,54)          0.0664         estimate D2E/DX2                !
 ! D323  D(48,47,53,52)         -0.0003         estimate D2E/DX2                !
 ! D324  D(48,47,53,54)        142.5516         estimate D2E/DX2                !
 ! D325  D(35,48,51,50)         -0.0755         estimate D2E/DX2                !
 ! D326  D(35,48,51,52)        142.4744         estimate D2E/DX2                !
 ! D327  D(47,48,51,50)       -142.5396         estimate D2E/DX2                !
 ! D328  D(47,48,51,52)          0.0103         estimate D2E/DX2                !
 ! D329  D(27,49,50,25)         -0.0968         estimate D2E/DX2                !
 ! D330  D(27,49,50,51)        141.9789         estimate D2E/DX2                !
 ! D331  D(36,49,50,25)       -142.4039         estimate D2E/DX2                !
 ! D332  D(36,49,50,51)         -0.3283         estimate D2E/DX2                !
 ! D333  D(25,50,51,48)        137.8517         estimate D2E/DX2                !
 ! D334  D(25,50,51,52)         -0.2652         estimate D2E/DX2                !
 ! D335  D(49,50,51,48)          0.3317         estimate D2E/DX2                !
 ! D336  D(49,50,51,52)       -137.7852         estimate D2E/DX2                !
 ! D337  D(48,51,52,23)       -142.5732         estimate D2E/DX2                !
 ! D338  D(48,51,52,53)         -0.0105         estimate D2E/DX2                !
 ! D339  D(50,51,52,23)         -0.0162         estimate D2E/DX2                !
 ! D340  D(50,51,52,53)        142.5464         estimate D2E/DX2                !
 ! D341  D(23,52,53,47)        142.5722         estimate D2E/DX2                !
 ! D342  D(23,52,53,54)          0.0135         estimate D2E/DX2                !
 ! D343  D(51,52,53,47)          0.0067         estimate D2E/DX2                !
 ! D344  D(51,52,53,54)       -142.5521         estimate D2E/DX2                !
 ! D345  D(47,53,54,21)       -137.8595         estimate D2E/DX2                !
 ! D346  D(47,53,54,55)         -0.3056         estimate D2E/DX2                !
 ! D347  D(52,53,54,21)          0.2576         estimate D2E/DX2                !
 ! D348  D(52,53,54,55)        137.8115         estimate D2E/DX2                !
 ! D349  D(21,54,55,45)        142.3925         estimate D2E/DX2                !
 ! D350  D(21,54,55,56)          0.1126         estimate D2E/DX2                !
 ! D351  D(53,54,55,45)          0.2884         estimate D2E/DX2                !
 ! D352  D(53,54,55,56)       -141.9915         estimate D2E/DX2                !
 ! D353  D(45,55,56,20)       -142.5048         estimate D2E/DX2                !
 ! D354  D(45,55,56,57)          0.6181         estimate D2E/DX2                !
 ! D355  D(54,55,56,20)         -0.0713         estimate D2E/DX2                !
 ! D356  D(54,55,56,57)        143.0516         estimate D2E/DX2                !
 ! D357  D(20,56,57,10)         -0.6156         estimate D2E/DX2                !
 ! D358  D(20,56,57,43)        138.3003         estimate D2E/DX2                !
 ! D359  D(55,56,57,10)       -139.4953         estimate D2E/DX2                !
 ! D360  D(55,56,57,43)         -0.5795         estimate D2E/DX2                !
 --------------------------------------------------------------------------------
 Trust Radius=3.00D-01 FncErr=1.00D-07 GrdErr=1.00D-06 EigMax=2.50D+02 EigMin=1.00D-04
 Number of steps in this run=    360 maximum allowed number of steps=    360.
 GradGradGradGradGradGradGradGradGradGradGradGradGradGradGradGradGradGrad

 Leave Link  103 at Wed Oct 27 12:43:43 2021, MaxMem= 16106127360 cpu:               1.4 elap:               0.1
 (Enter /opt/gaussian/16/C01/g16/l202.exe)
 Stoichiometry    C60(1+,2)
 Framework group  C1[X(C60)]
 Deg. of freedom   174
 Full point group                 C1      NOp   1
 RotChk:  IX=0 Diff= 1.64D-14
 Largest Abelian subgroup         C1      NOp   1
 Largest concise Abelian subgroup C1      NOp   1
                         Standard orientation:                         
 ---------------------------------------------------------------------
 Center     Atomic      Atomic             Coordinates (Angstroms)
 Number     Number       Type             X           Y           Z
 ---------------------------------------------------------------------
      1          6           0       -1.838275   -3.042163    0.012885
      2          6           0       -2.612876   -2.245131   -0.924138
      3          6           0       -3.350740   -1.152995   -0.466079
      4          6           0       -3.347120   -0.816242    0.950004
      5          6           0       -2.605939   -1.586154    1.847240
      6          6           0       -1.835029   -2.720610    1.365682
      7          6           0       -0.590885   -3.423510   -0.644844
      8          6           0       -0.596342   -2.869346   -1.973238
      9          6           0       -1.847242   -2.137693   -2.156310
     10          6           0       -1.852947   -0.950612   -2.879781
     11          6           0       -3.356320    0.090235   -1.224121
     12          6           0       -3.350587    0.634952    1.067649
     13          6           0       -2.614407    1.254346    2.077632
     14          6           0       -1.838782    0.448966    3.007964
     15          6           0       -1.834913   -0.936683    2.895740
     16          6           0       -0.584075   -1.673712    3.055662
     17          6           0       -0.584236   -2.766798    2.119130
     18          6           0        0.612885   -3.146083    1.486488
     19          6           0        0.609563   -3.479203    0.085488
     20          6           0        0.598276   -2.386671   -2.536252
     21          6           0        1.848916   -2.456065   -1.785076
     22          6           0        1.854233   -2.990576   -0.501505
     23          6           0        2.625838   -2.350803    0.552550
     24          6           0        1.859568   -2.446827    1.785066
     25          6           0        1.859768   -1.392000    2.691009
     26          6           0        0.612513   -0.990745    3.336281
     27          6           0        0.608446    0.443962    3.451581
     28          6           0       -0.592216    1.157462    3.285074
     29          6           0       -3.356366    1.194962   -0.276082
     30          6           0        0.590876    3.423506    0.644851
     31          6           0       -0.609581    3.479214   -0.085477
     32          6           0       -0.612910    3.146098   -1.486481
     33          6           0        0.584252    2.766797   -2.119152
     34          6           0        1.835046    2.720606   -1.365702
     35          6           0        2.612888    2.245134    0.924122
     36          6           0        1.847276    2.137758    2.156335
     37          6           0        0.596341    2.869353    1.973245
     38          6           0       -0.598276    2.386669    2.536260
     39          6           0       -1.848916    2.456055    1.785081
     40          6           0       -1.854248    2.990578    0.501516
     41          6           0       -1.859594    2.446842   -1.785056
     42          6           0       -1.859767    1.391997   -2.690991
     43          6           0       -0.612510    0.990739   -3.336273
     44          6           0        0.584087    1.673700   -3.055677
     45          6           0        1.834922    0.936668   -2.895755
     46          6           0        2.605954    1.586146   -1.847255
     47          6           0        3.347129    0.816234   -0.950011
     48          6           0        3.350752    1.152995    0.466074
     49          6           0        1.852938    0.950602    2.879786
     50          6           0        2.625462   -0.188104    2.408200
     51          6           0        3.356302   -0.090231    1.224110
     52          6           0        3.356356   -1.194965    0.276079
     53          6           0        3.350587   -0.634960   -1.067653
     54          6           0        2.614405   -1.254357   -2.077635
     55          6           0        1.838780   -0.448979   -3.007968
     56          6           0        0.592211   -1.157466   -3.285066
     57          6           0       -0.608449   -0.443978   -3.451573
     58          6           0       -2.625855    2.350807   -0.552543
     59          6           0       -2.625449    0.188113   -2.408185
     60          6           0        1.838280    3.042164   -0.012906
 ---------------------------------------------------------------------
 Rotational constants (GHZ):           0.0840566           0.0831053           0.0831016
 Leave Link  202 at Wed Oct 27 12:43:44 2021, MaxMem= 16106127360 cpu:               2.3 elap:               0.1
 (Enter /opt/gaussian/16/C01/g16/l301.exe)
 Standard basis: 6-311++G(d,p) (5D, 7F)
 Ernie: Thresh=  0.10000D-02 Tol=  0.10000D-05 Strict=F.
 There are  1380 symmetry adapted cartesian basis functions of A   symmetry.
 There are  1320 symmetry adapted basis functions of A   symmetry.
  1320 basis functions,  2160 primitive gaussians,  1380 cartesian basis functions
   180 alpha electrons      179 beta electrons
       nuclear repulsion energy      8320.5442340311 Hartrees.
 IExCor=  402 DFT=T Ex+Corr=B3LYP ExCW=0 ScaHFX=  0.200000
 ScaDFX=  0.800000  0.720000  1.000000  0.810000 ScalE2=  1.000000  1.000000
 IRadAn=      5 IRanWt=     -1 IRanGd=            0 ICorTp=0 IEmpDi=141
 NAtoms=   60 NActive=   60 NUniq=   60 SFac= 1.00D+00 NAtFMM=   60 NAOKFM=T Big=T
 Integral buffers will be    131072 words long.
 Raffenetti 2 integral format.
 Two-electron integral symmetry is turned on.
 R6Disp:  Grimme-D3(BJ) Dispersion energy=       -0.3162148921 Hartrees.
 Nuclear repulsion after empirical dispersion term =     8320.2280191390 Hartrees.
 Leave Link  301 at Wed Oct 27 12:43:44 2021, MaxMem= 16106127360 cpu:               5.1 elap:               0.2
 (Enter /opt/gaussian/16/C01/g16/l302.exe)
 NPDir=0 NMtPBC=     1 NCelOv=     1 NCel=       1 NClECP=     1 NCelD=      1
         NCelK=      1 NCelE2=     1 NClLst=     1 CellRange=     0.0.
 One-electron integrals computed using PRISM.
 One-electron integral symmetry used in STVInt
 NBasis=  1320 RedAO= T EigKep=  1.60D-06  NBF=  1320
 NBsUse=  1262 1.00D-06 EigRej=  4.82D-07 NBFU=  1262
 Precomputing XC quadrature grid using
 IXCGrd= 4 IRadAn=           5 IRanWt=          -1 IRanGd=           0 AccXCQ= 0.00D+00.
 Generated NRdTot=       0 NPtTot=           0 NUsed=           0 NTot=          32
 NSgBfM=  1347  1326  1326  1328  1347 MxSgAt=    60 MxSgA2=    60.
 Leave Link  302 at Wed Oct 27 12:43:47 2021, MaxMem= 16106127360 cpu:             108.4 elap:               2.8
 (Enter /opt/gaussian/16/C01/g16/l303.exe)
 DipDrv:  MaxL=1.
 Leave Link  303 at Wed Oct 27 12:43:48 2021, MaxMem= 16106127360 cpu:               9.7 elap:               0.3
 (Enter /opt/gaussian/16/C01/g16/l401.exe)
 Initial guess from the checkpoint file:  "C60+-f-1.chk"
 B after Tr=     0.000000   -0.000000    0.000000
         Rot=    1.000000   -0.000000    0.000000   -0.000000 Ang=   0.00 deg.
 Guess basis will be translated and rotated to current coordinates.
 JPrj=2 DoOrth=T DoCkMO=T.
 Initial guess <Sx>= 0.0000 <Sy>= 0.0000 <Sz>= 0.5000 <S**2>= 0.7538 S= 0.5019
 Leave Link  401 at Wed Oct 27 12:43:51 2021, MaxMem= 16106127360 cpu:             100.8 elap:               2.6
 (Enter /opt/gaussian/16/C01/g16/l502.exe)
 Integral symmetry usage will be decided dynamically.
 UHF open shell SCF:
 Using DIIS extrapolation, IDIIS=  1040.
 NGot= 16106127360 LenX= 16102250114 LenY= 16100344334
 Requested convergence on RMS density matrix=1.00D-08 within 128 cycles.
 Requested convergence on MAX density matrix=1.00D-06.
 Requested convergence on             energy=1.00D-06.
 No special actions if energy rises.
 Fock matrices will be formed incrementally for  20 cycles.

 Cycle   1  Pass 1  IDiag  1:
 FoFJK:  IHMeth= 1 ICntrl=       0 DoSepK=F KAlg= 0 I1Cent=           0 FoldK=F
 IRaf= 950000000 NMat=       1 IRICut=       1 DoRegI=T DoRafI=F ISym2E= 0 IDoP0=0 IntGTp=1.
 FoFCou: FMM=T IPFlag=           0 FMFlag=      100000 FMFlg1=        2001
         NFxFlg=           0 DoJE=F BraDBF=F KetDBF=F FulRan=T
         wScrn=  0.000000 ICntrl=         0 IOpCl=  1 I1Cent=           0 NGrid=           0
         NMat0=    1 NMatS0=      1 NMatT0=    0 NMatD0=    1 NMtDS0=    0 NMtDT0=    0
 Symmetry not used in FoFCou.
 FMM levels:  10  Number of levels for PrismC:   9
 E= -2286.47875968699    
 DIIS: error= 2.72D-02 at cycle   1 NSaved=   1.
 NSaved= 1 IEnMin= 1 EnMin= -2286.47875968699     IErMin= 1 ErrMin= 2.72D-02
 ErrMax= 2.72D-02  0.00D+00 EMaxC= 1.00D-01 BMatC= 2.19D+00 BMatP= 2.19D+00
 IDIUse=3 WtCom= 7.28D-01 WtEn= 2.72D-01
 Coeff-Com:  0.100D+01
 Coeff-En:   0.100D+01
 Coeff:      0.100D+01
 Gap=     0.302 Goal=   None    Shift=    0.000
 Gap=     0.301 Goal=   None    Shift=    0.000
 GapD=    0.301 DampG=1.000 DampE=0.500 DampFc=0.5000 IDamp=-1.
 Damping current iteration by 5.00D-01
 RMSDP=1.26D-02 MaxDP=3.66D-01              OVMax= 1.66D-02

 Cycle   2  Pass 1  IDiag  1:
 RMSU=  6.31D-03    CP:  1.01D+00
 E= -2286.56383433586     Delta-E=       -0.085074648867 Rises=F Damp=T
 DIIS: error= 1.34D-02 at cycle   2 NSaved=   2.
 NSaved= 2 IEnMin= 2 EnMin= -2286.56383433586     IErMin= 2 ErrMin= 1.34D-02
 ErrMax= 1.34D-02  0.00D+00 EMaxC= 1.00D-01 BMatC= 5.14D-01 BMatP= 2.19D+00
 IDIUse=3 WtCom= 8.66D-01 WtEn= 1.34D-01
 Coeff-Com: -0.927D+00 0.193D+01
 Coeff-En:   0.000D+00 0.100D+01
 Coeff:     -0.803D+00 0.180D+01
 Gap=     0.094 Goal=   None    Shift=    0.000
 Gap=     0.033 Goal=   None    Shift=    0.000
 RMSDP=6.75D-03 MaxDP=1.92D-01 DE=-8.51D-02 OVMax= 2.77D-03

 Cycle   3  Pass 1  IDiag  1:
 RMSU=  2.30D-04    CP:  1.04D+00  2.06D+00
 E= -2286.64827583350     Delta-E=       -0.084441497644 Rises=F Damp=F
 DIIS: error= 4.17D-04 at cycle   3 NSaved=   3.
 NSaved= 3 IEnMin= 3 EnMin= -2286.64827583350     IErMin= 3 ErrMin= 4.17D-04
 ErrMax= 4.17D-04  0.00D+00 EMaxC= 1.00D-01 BMatC= 5.61D-04 BMatP= 5.14D-01
 IDIUse=3 WtCom= 9.96D-01 WtEn= 4.17D-03
 Coeff-Com: -0.105D+00 0.210D+00 0.895D+00
 Coeff-En:   0.000D+00 0.000D+00 0.100D+01
 Coeff:     -0.105D+00 0.209D+00 0.896D+00
 Gap=     0.094 Goal=   None    Shift=    0.000
 Gap=     0.033 Goal=   None    Shift=    0.000
 RMSDP=1.49D-04 MaxDP=4.07D-03 DE=-8.44D-02 OVMax= 2.29D-03

 Cycle   4  Pass 1  IDiag  1:
 RMSU=  1.13D-04    CP:  1.04D+00  2.06D+00  8.18D-01
 E= -2286.64824707093     Delta-E=        0.000028762575 Rises=F Damp=F
 DIIS: error= 6.22D-04 at cycle   4 NSaved=   4.
 NSaved= 4 IEnMin= 3 EnMin= -2286.64827583350     IErMin= 3 ErrMin= 4.17D-04
 ErrMax= 6.22D-04  0.00D+00 EMaxC= 1.00D-01 BMatC= 7.91D-04 BMatP= 5.61D-04
 IDIUse=3 WtCom= 2.86D-01 WtEn= 7.14D-01
 Coeff-Com: -0.304D-01 0.587D-01 0.556D+00 0.415D+00
 Coeff-En:   0.000D+00 0.000D+00 0.544D+00 0.456D+00
 Coeff:     -0.869D-02 0.168D-01 0.547D+00 0.445D+00
 Gap=     0.094 Goal=   None    Shift=    0.000
 Gap=     0.033 Goal=   None    Shift=    0.000
 RMSDP=1.65D-04 MaxDP=6.90D-03 DE= 2.88D-05 OVMax= 1.69D-03

 Cycle   5  Pass 1  IDiag  1:
 RMSU=  3.22D-05    CP:  1.04D+00  2.07D+00  1.01D+00  2.37D-01
 E= -2286.64840896503     Delta-E=       -0.000161894097 Rises=F Damp=F
 DIIS: error= 9.10D-05 at cycle   5 NSaved=   5.
 NSaved= 5 IEnMin= 5 EnMin= -2286.64840896503     IErMin= 5 ErrMin= 9.10D-05
 ErrMax= 9.10D-05  0.00D+00 EMaxC= 1.00D-01 BMatC= 2.79D-05 BMatP= 5.61D-04
 IDIUse=1 WtCom= 1.00D+00 WtEn= 0.00D+00
 Coeff-Com: -0.145D-02 0.228D-02 0.196D+00 0.208D+00 0.595D+00
 Coeff:     -0.145D-02 0.228D-02 0.196D+00 0.208D+00 0.595D+00
 Gap=     0.094 Goal=   None    Shift=    0.000
 Gap=     0.033 Goal=   None    Shift=    0.000
 RMSDP=2.97D-05 MaxDP=1.46D-03 DE=-1.62D-04 OVMax= 1.27D-03

 Cycle   6  Pass 1  IDiag  1:
 RMSU=  1.51D-05    CP:  1.04D+00  2.07D+00  9.94D-01  3.44D-01  6.39D-01
 E= -2286.64841065716     Delta-E=       -0.000001692131 Rises=F Damp=F
 DIIS: error= 1.08D-04 at cycle   6 NSaved=   6.
 NSaved= 6 IEnMin= 6 EnMin= -2286.64841065716     IErMin= 5 ErrMin= 9.10D-05
 ErrMax= 1.08D-04  0.00D+00 EMaxC= 1.00D-01 BMatC= 1.80D-05 BMatP= 2.79D-05
 IDIUse=1 WtCom= 1.00D+00 WtEn= 0.00D+00
 Coeff-Com:  0.135D-02-0.301D-02 0.109D+00 0.127D+00 0.467D+00 0.299D+00
 Coeff:      0.135D-02-0.301D-02 0.109D+00 0.127D+00 0.467D+00 0.299D+00
 Gap=     0.094 Goal=   None    Shift=    0.000
 Gap=     0.033 Goal=   None    Shift=    0.000
 RMSDP=1.14D-05 MaxDP=5.42D-04 DE=-1.69D-06 OVMax= 7.25D-04

 Cycle   7  Pass 1  IDiag  1:
 RMSU=  2.99D-06    CP:  1.04D+00  2.07D+00  9.90D-01  3.55D-01  6.99D-01
                    CP:  3.26D-01
 E= -2286.64841583542     Delta-E=       -0.000005178259 Rises=F Damp=F
 DIIS: error= 4.68D-06 at cycle   7 NSaved=   7.
 NSaved= 7 IEnMin= 7 EnMin= -2286.64841583542     IErMin= 7 ErrMin= 4.68D-06
 ErrMax= 4.68D-06  0.00D+00 EMaxC= 1.00D-01 BMatC= 6.23D-08 BMatP= 1.80D-05
 IDIUse=1 WtCom= 1.00D+00 WtEn= 0.00D+00
[...]
 00308324,0.00206198,0.00026572,-0.00139777,0.00011331,-0.00016735,0.00
 030360,-0.00122286,0.00010688,0.00071401,-0.00009190,0.00010826,0.0005
 9835,0.00040351,0.00125815,0.00086010,-0.00081637,-0.00054868,-0.00203
 156,0.00051141,0.00021301,-0.00061490,-0.00057598,0.00006537,0.0000832
 4,0.00002571,0.00021091,-0.00080584,0.00022349,-0.00053968,-0.00160402
 ,-0.00136861,0.00127876,0.00039922,0.00112206,-0.00111022,-0.00018972,
 -0.00082903,0.00134244,-0.00027332,0.00081071,0.41258116,-0.00021229,0
 .00064374,-0.00106468,-0.00236405,-0.00312935,0.00416729,0.00159621,0.
 00573378,0.00556097,0.00246524,0.01038203,0.00020763,-0.00389143,-0.00
 015494,-0.00822236,-0.00090476,-0.00027334,0.00048582,-0.00080894,0.00
 003350,0.00014849,-0.00071887,0.00010054,0.00012355,0.00184374,-0.0012
 1733,-0.00251283,0.00199988,0.00228729,-0.00141656,0.00330734,-0.03985
 854,0.01654587,-0.00279817,-0.01818509,-0.03964378,0.01319678,-0.01888
 284,-0.00007376,0.00473144,0.00290156,0.00428842,0.00278183,-0.0056158
 1,0.00247077,0.00202969,-0.00036965,0.00107760,0.00127003,-0.00000309,
 -0.00030768,-0.00049010,0.00005866,0.00108006,-0.00062507,-0.00061967,
 0.00026652,-0.00064415,-0.00156195,-0.00055124,0.00210333,-0.00094131,
 0.00039256,0.00118534,-0.00028614,0.00020098,-0.00031806,0.00054231,-0
 .00096824,-0.00060509,-0.00001521,0.00074099,0.00064758,0.00039894,-0.
 00088838,-0.00167379,-0.00000744,0.00042512,0.00005417,0.00000861,0.00
 019711,-0.00129964,0.00086904,0.00110391,0.12214035,-0.23605118,-0.026
 26702,-0.00005683,0.00141383,-0.00638675,0.03051998,-0.01155239,0.0041
 0264,0.02176215,-0.00359926,-0.01293565,0.00063229,-0.00085364,0.00486
 031,0.00053104,0.00185827,-0.00084731,0.00047867,0.00044182,0.00004256
 ,0.00029384,0.00057840,0.00053360,0.00028910,0.00083463,0.00277443,0.0
 0061015,0.00347634,-0.00532876,-0.01687274,0.01569999,0.01528881,0.053
 76090,-0.08940224,0.02795373,0.02634344,-0.07593363,0.01190497,-0.0195
 5000,0.00555949,0.01074712,0.00224443,-0.00289583,0.00661190,-0.001147
 95,0.00047286,-0.00218772,-0.00015092,0.00170926,-0.00005301,0.0009509
 2,-0.00018969,0.00081752,-0.00007581,-0.00036235,-0.00024763,-0.000086
 31,-0.00060661,-0.00001696,-0.00026293,-0.00059403,0.00022953,0.000817
 61,0.00086611,-0.00064893,-0.00042744,0.00016302,0.00088388,-0.0000174
 7,0.00020039,-0.00048016,-0.00006248,0.00034724,0.00034992,-0.00014255
 ,0.00193925,0.00099379,-0.00115287,-0.00052174,-0.00121490,0.00135903,
 -0.00033282,-0.00097443,-0.00121362,0.00039533,0.00058250,-0.25135044,
 0.46196797,-0.00161092,-0.00134627,0.00088669,-0.00388621,-0.00233707,
 0.00795350,0.00231522,0.00946984,-0.00107515,-0.00137992,-0.00365408,-
 0.00573013,0.00241503,-0.00173196,0.00493653,0.00133251,0.00075639,0.0
 0180172,0.00444264,-0.00038044,0.00028153,0.00591974,0.00015531,-0.002
 76377,0.00249875,-0.00626761,-0.00558128,0.00650269,0.00554056,-0.0028
 4322,-0.01240629,0.00333963,0.02781722,0.01254852,-0.02650577,0.006008
 36,-0.00745195,0.01781705,-0.00105508,-0.00490582,-0.00262636,-0.00343
 558,-0.00139819,0.00621363,-0.00114741,-0.00560944,0.00105114,-0.00225
 607,-0.00435046,0.00019652,0.00035906,-0.00038548,-0.00108208,-0.00330
 948,0.00014687,0.00242766,-0.00260285,-0.00243274,0.00349637,0.0002599
 0,-0.00271956,0.00176812,0.00136881,-0.00370724,0.00127530,-0.00187214
 ,-0.00006342,-0.00096826,0.00438511,0.00383359,-0.00032514,-0.00216305
 ,0.00340165,-0.00226037,-0.00000254,0.00185032,-0.00363823,-0.00129673
 ,0.00290455,-0.00163887,0.00119754,-0.00013340,-0.00035208,-0.00291896
 ,0.02886299,-0.02636977,-0.13276648,0.00146177,0.00035189,0.00216454,-
 0.01199141,0.00271881,0.01378223,0.02463781,-0.01159441,0.00569903,-0.
 00130238,-0.00187278,0.00446202,-0.00196425,-0.00186329,-0.00086503,0.
 00115675,-0.00043202,-0.00191425,-0.00090647,0.00219657,0.00076831,-0.
 00309190,-0.00291634,-0.00069080,0.00368236,-0.00603297,-0.00544691,-0
 .01012862,-0.00965692,-0.04556755,-0.04829959,0.03787932,-0.15528032,0
 .06723738,0.00230675,-0.16865850,0.00117414,0.03557009,-0.03534008,-0.
 00298446,0.00730635,0.00092735,0.00286878,0.00351910,-0.00035514,0.000
 93032,-0.00170576,-0.00037345,-0.00082576,0.00128987,-0.00126360,-0.00
 004605,-0.00050381,-0.00008122,0.00000558,0.00023420,0.00016097,-0.002
 02190,-0.00108655,0.00143188,-0.00193393,0.00313255,0.00125482,0.00070
 419,0.00071796,-0.00209779,-0.00000155,-0.00047571,0.00210691,-0.00083
 621,0.00052067,-0.00228580,0.00210677,-0.00276833,0.00018197,0.0016832
 4,0.00008910,0.00135234,-0.00256382,0.00086627,0.00154562,-0.00047172,
 0.00202193,-0.00245610,-0.05941968,-0.01280194,0.51357959,-0.00291967,
 -0.00087195,-0.00285558,-0.00716052,-0.00622981,0.01386489,-0.00268695
 ,0.02360572,0.01501255,0.00180558,0.00129862,-0.00790289,0.00361521,0.
 00452742,0.00029733,-0.00227258,-0.00290390,0.00386186,0.00134029,-0.0
 0087844,-0.00001388,-0.00169631,-0.00314175,0.00397528,0.01281678,-0.0
 1434082,-0.02277064,-0.10896542,-0.04027750,0.04616518,-0.11454041,0.0
 1030461,0.12729371,0.00180882,-0.00258358,-0.00755631,0.00357450,-0.00
 440266,0.00102309,0.00105768,0.00059913,0.00090732,0.00106021,-0.00044
 680,0.00099458,0.00029715,-0.00077216,0.00140313,-0.00198479,-0.001193
 12,-0.00003048,0.00227521,-0.00085233,0.00022414,-0.00108974,0.0007415
 7,-0.00044951,0.00222321,-0.00292521,-0.00230267,0.00025321,-0.0005393
 0,-0.00128852,0.00126121,-0.00094022,0.00072860,-0.00054865,0.00081763
 ,-0.00193396,-0.00191263,0.00121520,0.00050481,0.00025201,-0.00010501,
 -0.00046029,-0.00182234,0.00044919,0.00010321,-0.00182776,-0.00042883,
 0.00018115,0.00032076,0.00098773,0.00125963,-0.00290662,-0.02079132,0.
 01870769,-0.00110321,-0.00079504,-0.00031672,0.00134770,0.00084310,-0.
 00014932,-0.00169326,0.00373723,0.00345008,0.00224731,0.00250433,-0.00
 272135,0.00026211,0.00032401,-0.00136773,-0.00054041,-0.00110963,-0.00
 178939,-0.00192896,-0.00110009,0.00070514,0.00227321,0.00086366,0.0000
 9422,-0.00196209,0.00117397,-0.00022156,-0.00224191,0.00347692,0.00331
 619,-0.00289295,0.00040078,-0.00293625,0.01290284,0.01015308,-0.024671
 54,-0.10852096,0.04698579,0.03894971,-0.04232461,0.01799626,0.01728309
 ,0.00112342,-0.00684305,0.00435663,-0.00223486,0.00040153,-0.00025496,
 -0.00016678,-0.00125157,0.00011466,0.00010682,-0.00019868,0.00068799,0
 .00021038,0.00034633,-0.00075920,0.00024110,0.00001530,-0.00046931,0.0
 0019194,-0.00001873,-0.00032353,0.00006748,0.00000915,0.00008609,0.000
 21229,-0.00047720,-0.00069757,0.00010911,0.00030643,0.00065296,-0.0001
 6024,0.00124514,-0.00009502,-0.00222473,-0.00042134,-0.00017756,0.0011
 7659,0.00746824,0.00320971,-0.04251523,-0.01473606,0.01992012,-0.00707
 359,0.00838512,0.01259130,0.41221220,-0.00558559,-0.00355130,-0.003641
 38,-0.00937364,-0.00413811,0.02010902,0.01290002,0.01538804,-0.0213605
 0,-0.00173884,-0.00484116,-0.00598925,0.00298003,0.00632178,-0.0007464
 4,-0.00181258,-0.00256315,0.00670249,0.00006367,-0.00295376,-0.0009522
 3,0.00356148,-0.00352298,-0.00712149,-0.00745834,-0.04498519,-0.018983
 58,-0.05596352,-0.16345795,0.02614030,0.01016974,-0.12724117,-0.009579
 83,0.00204415,-0.00317582,0.00810556,-0.00348438,0.00742499,-0.0007229
 7,-0.00156180,0.00126192,-0.00125584,0.00146578,0.00155806,0.00104869,
 -0.00449868,0.00036454,0.00026267,-0.00588303,-0.00255146,0.00072144,0
 .00211777,-0.00078747,-0.00377273,0.00288309,0.00138448,-0.00142479,-0
 .00311987,-0.00062009,-0.00313226,-0.00093647,0.00035327,0.00216840,-0
 .00196607,0.00152223,-0.00076166,-0.00203151,0.00086611,0.00313253,0.0
 0326029,0.00048965,-0.00224835,0.00389919,-0.00218698,-0.00066625,-0.0
 0032684,-0.00324079,-0.00158760,0.00023030,-0.00296904,0.00207585,0.00
 453040,0.00031618,-0.00033336,-0.01273333,0.02326814,0.01301548,-0.002
 74324,0.00153068,0.00116058,-0.00029946,-0.00278468,0.00153873,-0.0033
 2597,-0.00125335,0.00756882,0.00303394,-0.00052015,0.00335492,0.000949
 73,-0.00005908,-0.00199009,0.00210259,0.00047811,-0.00300655,-0.003022
 01,0.00099270,0.00207273,-0.00231271,-0.00022681,0.00371590,0.00598138
 ,-0.00274759,-0.00028382,0.00218495,-0.00416235,-0.00673115,0.00613265
 ,-0.00335024,0.00468386,0.00412486,-0.04138522,0.02835384,0.06229709,-
 0.16885574,-0.01223821,0.02107046,0.00918959,-0.00958825,-0.00137352,0
 .00389440,-0.00115331,-0.00202804,-0.00038706,-0.00222144,-0.00096027,
 -0.00156100,0.00108785,-0.00003272,0.00002675,-0.00044831,-0.00081690,
 -0.00235159,0.00010421,-0.00385378,-0.00206208,0.00100229,-0.00001863,
 0.00460387,-0.00033820,0.00000331,0.00220641,-0.00017731,0.00075946,-0
 .00227683,0.00034645,0.00001847,0.00010662,0.00034164,0.00107284,-0.00
 180118,-0.00077240,0.00205878,0.00016164,0.00241266,0.00142595,0.00303
 481,0.00058711,-0.01643680,0.01217646,0.00639743,0.01117390,-0.0080825
 1,-0.02145272,-0.02065140,0.51624672,0.00391859,0.00329428,0.00301073,
 0.01190324,0.00215423,-0.01576520,-0.00084987,-0.03441195,-0.02756328,
 0.00222153,-0.00213125,0.00950119,-0.00348228,-0.00723149,-0.00153921,
 0.00254450,0.00294427,-0.00420796,-0.00129905,0.00050632,0.00088854,0.
 00117332,-0.00641119,0.00155207,-0.01818433,0.00583648,0.01522623,0.04
 605259,0.01646721,-0.08065136,0.12540939,-0.00962131,-0.24144573,0.001
 93620,0.00418801,0.00783430,-0.00292820,0.00579737,-0.00259790,-0.0004
 5861,-0.00097078,0.00028636,-0.00068997,0.00077172,-0.00003658,0.00058
 973,-0.00024771,-0.00000984,0.00113596,0.00073497,-0.00009040,-0.00135
 893,0.00030528,-0.00053251,0.00050646,0.00041223,-0.00018121,-0.000199
 15,0.00255332,0.00078121,0.00015113,0.00049838,0.00099817,-0.00057525,
 0.00056041,-0.00067687,0.00051140,-0.00064895,0.00125488,0.00116056,-0
 .00087226,-0.00008664,-0.00000943,0.00040587,-0.00000494,-0.00054615,0
 .00057216,-0.00002205,-0.00059241,-0.00009904,-0.00025910,-0.00011897,
 0.00019343,0.00000185,0.00133420,0.02617727,-0.03528824,0.00094207,-0.
 00068755,-0.00030252,-0.00127994,0.00008641,0.00072905,0.00174815,0.00
 685925,-0.00070883,-0.00068430,-0.00232688,0.00064272,-0.00000191,-0.0
 0032879,0.00139537,0.00018358,0.00076898,0.00162659,0.00166189,0.00069
 464,-0.00056008,-0.00102117,-0.00034584,-0.00106474,0.00020675,-0.0003
 2470,0.00007612,0.00220328,-0.00296791,-0.00264434,0.00297629,-0.00229
 064,0.00279379,-0.01919757,0.00338995,0.01152869,0.03630176,-0.0023310
 7,-0.07607263,0.02523203,-0.01099816,-0.00705001,0.00043657,0.00558024
 ,-0.00028572,0.00022440,-0.00119437,0.00138698,0.00081245,0.00060595,0
 .00010425,-0.00007930,-0.00018744,-0.00046805,-0.00018949,-0.00006685,
 0.00041641,0.00060215,-0.00007574,-0.00009606,-0.00032354,-0.00033815,
 0.00033790,-0.00001776,-0.00016986,0.00010272,-0.00031570,0.00050757,0
 .00035137,-0.00008284,0.00009376,-0.00055603,0.00064846,-0.00030483,0.
 00032822,-0.00009343,0.00138641,0.00080545,0.00015607,-0.00613081,0.00
 052240,0.02832605,0.00772155,-0.00989544,0.01022430,-0.00351320,-0.011
 94076,-0.25798160,-0.00393947,0.45877347,0.00299050,0.00220901,0.00105
 924,0.00023675,-0.00177287,-0.00349152,0.00014087,0.00023786,-0.000776
 06,0.00067210,0.00168935,0.00128607,-0.00193937,-0.00331937,0.00100059
 ,0.00295262,0.00109405,-0.00200199,-0.00322374,0.00115802,-0.00001312,
 -0.00519906,0.00022459,0.00482188,-0.00261332,0.00205886,0.00175145,-0
 .00185703,-0.00196847,0.00080698,-0.00081513,-0.00016705,0.00166522,0.
 00005868,-0.00069083,-0.00034919,0.00026645,0.00085011,0.00043573,0.00
 010189,-0.00125739,-0.00051971,-0.00186532,0.00061944,-0.00066060,-0.0
 0100262,0.00104349,-0.00291435,0.00323387,0.00371010,-0.00078177,-0.00
 665314,0.00219713,0.00094695,-0.00239328,-0.00115898,0.00383722,0.0055
 2581,-0.00371824,-0.00144511,0.00038694,0.00158737,0.00017396,0.003266
 10,-0.00269576,-0.00230965,0.00105482,-0.00021230,-0.00161097,0.000370
 62,-0.00419776,0.00179866,-0.00141125,0.00198685,0.00089021,0.00293672
 ,-0.00164407,0.00047281,-0.00052160,0.00414369,0.00117265,-0.00057626,
 0.00025178,0.00054415,-0.00024381,0.00128577,-0.00083531,-0.17120241,-
 0.03916529,0.04001482,-0.03435361,-0.00129332,-0.01238106,0.00305898,-
 0.00933626,0.00870713,0.00559844,0.00703652,-0.01540102,-0.10407075,-0
 .03806941,-0.00606273,-0.10978225,-0.06104759,-0.03943175,0.01248539,0
 .00006307,-0.00736752,-0.00315461,0.01204300,0.03090337,0.00218696,-0.
 00189986,-0.00045471,-0.00138166,-0.00098657,-0.00205659,-0.00552946,0
 .00059053,-0.00156544,-0.00135618,0.00531843,-0.00105261,0.00017037,-0
 .00319959,0.00012944,-0.00037621,-0.00017800,-0.00099159,-0.00574211,0
 .00311233,-0.00244213,0.00259616,-0.00648826,0.00243138,0.01318734,0.0
 0793714,0.01790243,-0.00376133,0.00114000,-0.01503926,-0.01941191,-0.0
 2699678,0.00070593,0.00262860,0.00787728,0.00319857,-0.00291979,-0.005
 58565,0.00391866,0.00218379,-0.00346738,0.00206798,0.00034978,-0.00109
 161,-0.00105668,-0.00012778,-0.00297103,0.00000249,-0.00230674,-0.0004
 9392,-0.00310862,0.00308630,0.00430994,0.00056507,0.00266659,0.0011525
 9,0.00078907,-0.00104493,-0.00101679,0.00119841,-0.00222292,-0.0004068
 7,0.00201527,0.00127188,0.00185368,-0.00087390,0.42339423,0.00220903,0
 .00295383,-0.00090543,0.00045106,-0.00055114,-0.00147878,0.00019815,0.
 00022102,-0.00051926,0.00031588,0.00074381,0.00052825,-0.00127748,-0.0
 0116313,-0.00007040,0.00007167,-0.00103547,-0.00265881,-0.00737642,-0.
 00108333,-0.00100949,-0.00387642,-0.00027177,0.00108403,0.00023146,0.0
 0225875,0.00122767,-0.00042764,-0.00207964,-0.00030488,-0.00011134,-0.
 00003148,0.00091749,-0.00019701,-0.00045600,-0.00043678,-0.00032179,-0
 .00069330,-0.00072424,-0.00032808,0.00105832,0.00024132,-0.00137874,-0
 .00119468,0.00001229,0.00063468,0.00102667,-0.00165733,0.00645569,0.00
 269512,-0.00016215,-0.00504866,0.00187265,0.00325381,0.00293981,-0.003
 04610,0.00405803,0.00019319,-0.00324117,-0.00184234,0.00234340,-0.0004
 7227,0.00119219,0.00226845,-0.00062785,-0.00052518,0.00080275,0.000643
 72,-0.00134627,-0.00118476,-0.00201019,0.00095523,-0.00168392,0.000903
 13,0.00139815,0.00269898,0.00100207,0.00019067,0.00065326,0.00065284,-
 0.00117044,0.00128178,-0.00095645,-0.00030310,-0.00084127,0.00045683,0
 .00014211,-0.03652403,-0.05615510,0.00975094,-0.01260491,-0.00203778,-
 0.00738949,0.00483963,-0.00270334,0.00537878,0.00607675,-0.00223513,-0
 .00287035,-0.03636571,-0.07129096,0.06452856,-0.05643983,-0.10050701,-
 0.04644994,0.00506415,-0.00846012,-0.02233115,0.00790905,0.00710313,0.
 00302852,0.00317682,0.00311914,-0.00253559,-0.00369134,-0.00035740,-0.
 00274371,-0.00077550,0.00534499,-0.00055180,-0.00040198,0.00205953,-0.
 00060009,0.00133480,-0.00168072,-0.00104461,-0.00009841,-0.00063272,0.
 00124364,-0.00520397,0.00351546,0.00084181,-0.00061846,0.00002771,0.00
 267459,0.00621014,-0.00806395,0.01744270,-0.00654414,0.00000640,-0.005
 77376,-0.01487257,-0.02934045,0.00156665,0.00028534,0.00929204,0.00034
 218,-0.00087200,-0.00355126,0.00329426,-0.00678201,-0.00336541,-0.0001
 2663,-0.00078388,-0.00107294,-0.00115953,0.00130061,0.00003214,0.00040
 315,-0.00086617,0.00097875,-0.00032893,-0.00009046,-0.00115654,0.00077
 054,-0.00014173,0.00144895,-0.00098225,-0.00086445,0.00099206,0.000114
 94,-0.00011107,0.00021544,0.00241899,0.00104430,0.00148573,-0.00089969
 ,0.14771527,0.25941452,0.00105922,-0.00090550,0.00147571,-0.00013107,-
 0.00041859,-0.00161252,-0.00026502,-0.00170145,-0.00185974,-0.00013541
 ,-0.00217444,0.00110176,0.00030953,-0.00143378,0.00160062,0.00226857,0
 .00173801,0.00079640,0.00389800,0.00207946,0.00153829,0.00563608,-0.00
 016684,0.00016264,-0.00268137,-0.00240773,0.00110646,-0.00078865,-0.00
 038515,-0.00132382,-0.00003179,0.00188878,0.00007734,0.00008537,0.0014
 9741,0.00031376,0.00137358,0.00093403,0.00202452,-0.00131387,-0.002998
 72,0.00063959,-0.00162659,0.00011097,-0.00221652,0.00390929,-0.0004759
 7,0.00012773,-0.00248297,0.00065686,-0.00039776,0.00167185,-0.00256002
 ,0.00168558,-0.00225512,0.00113711,-0.00522811,0.00078207,0.00435866,0
 .00085330,-0.00392769,0.00097194,-0.00200329,-0.00270733,0.00047827,-0
 .00099964,0.00073150,-0.00106465,0.00088673,-0.00107603,0.00121193,-0.
 00044712,-0.00135318,-0.00215359,0.00128851,-0.00046297,0.00254266,0.0
 0117569,0.00635181,0.00039745,-0.00259758,-0.00344298,-0.00249779,-0.0
 0328459,0.00055773,-0.00093667,-0.00049773,0.02730015,0.00343646,-0.11
 851479,-0.00051374,-0.00080315,0.03303532,0.00415382,0.00746784,-0.014
 55029,-0.03271420,0.00527804,-0.03489574,-0.01297411,0.05940338,-0.315
 93466,-0.02441074,-0.03672387,-0.14322756,0.00455908,-0.02565819,-0.05
 605871,0.03037678,-0.00767800,-0.04516551,-0.00945291,-0.00446463,-0.0
 0327584,0.00398523,-0.00045224,0.00228651,-0.00145571,-0.00067414,-0.0
 0224918,0.00224046,-0.00294567,-0.00015402,0.00289999,0.00247008,-0.00
 242158,-0.00651789,0.00197435,-0.00104297,-0.00176658,-0.01060401,0.00
 815722,0.00845390,-0.00755261,0.01185630,0.02611966,0.04234447,-0.0220
 7165,-0.00737263,0.00083150,-0.02556635,-0.01337699,-0.01335573,0.0331
 2613,0.00691075,0.01052222,0.00253844,-0.00285564,-0.00364137,0.003010
 64,0.00148418,0.00110930,-0.00119362,-0.00124175,0.00019870,0.00137902
 ,0.00114901,-0.00638442,-0.00064297,-0.00477575,-0.00409173,-0.0077164
 7,0.00434006,0.01214380,0.00082232,0.00648488,0.00021417,0.00386387,-0
 .00488656,-0.00379137,0.00126451,-0.00044766,0.00139304,0.00076364,0.0
 0057126,0.00041029,-0.00065277,-0.01021888,-0.01809913,0.69884455\\0.0
 0007005,0.00005096,0.00015036,-0.00014370,-0.00012068,-0.00003781,0.00
 006207,0.00009948,-0.00007476,0.00006167,0.00005641,0.00010670,-0.0001
 4581,-0.00011088,-0.00001201,0.00005305,0.00011891,-0.00011841,0.00002
 242,-0.00002425,0.00000459,0.00004731,0.00000005,-0.00002493,-0.000004
 51,-0.00005616,-0.00006227,-0.00004484,0.00007602,0.00004216,0.0000169
 3,0.00000812,-0.00005665,0.00001811,-0.00003118,0.00005372,-0.00004819
 ,0.00002677,-0.00003060,-0.00004320,0.00009854,0.00002125,0.00003514,-
 0.00007436,0.00001316,0.00004982,-0.00001959,-0.00000635,0.00002205,0.
 00001067,0.00000930,-0.00009580,0.00000978,-0.00009302,-0.00007637,0.0
 0005682,0.00008825,-0.00007264,-0.00001582,0.00004049,-0.00000161,0.00
 006204,0.00009495,0.00005481,-0.00001215,-0.00015496,0.00006821,-0.000
 11430,-0.00002340,0.00003322,-0.00008318,0.00011243,0.00003836,0.00012
 678,-0.00007346,-0.00006918,0.00001160,0.00002447,-0.00010386,-0.00001
 556,0.00002233,0.00009608,0.00000614,0.00007232,0.00003692,-0.00011137
 ,-0.00000699,-0.00002201,0.00002392,-0.00000595,0.00007582,-0.00005691
 ,-0.00008682,0.00009731,-0.00000959,0.00009168,-0.00002342,-0.00001150
 ,-0.00000825,-0.00005241,-0.00011874,0.00011787,0.00014437,0.00011947,
 0.00003755,0.00000380,0.00005923,0.00006251,-0.00004811,-0.00000092,0.
 00002570,0.00007303,0.00001564,-0.00004119,0.00000126,-0.00006200,-0.0
 0009460,-0.00005457,0.00001215,0.00015424,-0.00003341,0.00008437,-0.00
 011345,-0.00003785,-0.00012903,0.00007408,0.00006945,-0.00001112,-0.00
 002440,-0.00004968,0.00002029,0.00000580,-0.00003533,0.00007403,-0.000
 01297,0.00014530,0.00011077,0.00001190,-0.00006132,-0.00005636,-0.0001
 0601,-0.00006289,-0.00009947,0.00007367,0.00004633,-0.00007954,-0.0000
 4148,0.00004321,-0.00001433,-0.00005880,-0.00001603,-0.00000784,0.0000
 5741,-0.00003705,0.00011117,0.00000710,-0.00001821,0.00003151,-0.00005
 398,0.00004821,-0.00002704,0.00003073,0.00004311,-0.00009859,-0.000021
 26,-0.00009550,-0.00000515,-0.00007162,0.00010230,0.00001535,-0.000022
 14,-0.00006818,0.00011423,0.00002381,-0.00004389,0.00001714,0.00005774
 ,-0.00007015,-0.00005074,-0.00014974\\\@
 The archive entry for this job was punched.


 KNIGHT- SIRE, I'VE JUST RETURNED FROM THE FRONT
 KING-   HOW GOES THE BATTLE                    
 KNIGHT- THE SITUATION IS QUITE FLUID           
 KING-   WHAT DOES *THAT* MEAN                  
 KNIGHT- WE'RE UP THE CREEK                     
                THE WIZARD OF ID                
 Job cpu time:      83 days 12 hours 33 minutes 21.0 seconds.
 Elapsed time:       2 days  2 hours  8 minutes  6.2 seconds.
 File lengths (MBytes):  RWF=  16150 Int=      0 D2E=      0 Chk=    256 Scr=      1
 Normal termination of Gaussian 16 at Fri Oct 29 16:05:54 2021.
